5
Time=1 Lattice="20.0 0.00000000 0.00000000 0.00000000 25.0 0.00000000 0.00000000 0.00000000 0.000000000000000001" Properties=id:I:1:pos:R:2:radius:R:1:color:R:3
1 14.234708632915552 22.29192119747894 0.3185086263485815 0.3796507326791162 0.014700037239516739 1 
2 11.990017551812622 22.50037637348781 0.3103235394259476 0.4420089095050277 0.0033743528338433526 1 
3 8.87649933675156 20.996386130606236 0.31026263500048235 0.5366905608961665 0.001348014401702513 1 
4 5.340893915547384 22.832369451558545 0.3034370599839214 0.6277506553075674 0.016595645376991763 1 
5 8.564040305246976 17.217830931078318 0.32485401945056364 0.5605065993661196 0.003674550891103412 1 
5
Time=201 Lattice="20.0 0.00000000 0.00000000 0.00000000 25.0 0.00000000 0.00000000 0.00000000 0.000000000000000001" Properties=id:I:1:pos:R:2:radius:R:1:color:R:3
1 14.191761944277012 22.118741693570733 0.3185086263485815 0.379650732858131 0.014700037195122972 1 
2 11.969323405756668 22.323155294038237 0.3103235394259476 0.44200890927473124 0.003374352860735119 1 
3 8.88959237945634 20.81844195141201 0.31026263500048235 0.5366905608934542 0.0013480144015029505 1 
4 5.386481792775371 22.659866396145976 0.3034370599839214 0.627750655300342 0.01659564537508229 1 
5 8.585632111693148 17.040716977447982 0.32485401945056364 0.5605065993478389 0.0036745508888748057 1 
5
Time=401 Lattice="20.0 0.00000000 0.00000000 0.00000000 25.0 0.00000000 0.00000000 0.00000000 0.000000000000000001" Properties=id:I:1:pos:R:2:radius:R:1:color:R:3
1 14.083567353713681 21.682454608516277 0.3185086263485815 0.37965073369297664 0.014700036988090026 1 
2 11.917189125810339 21.876686362066735 0.3103235394259476 0.44200890840803614 0.0033743529619392754 1 
3 8.922577376563162 20.370151331077214 0.31026263500048235 0.5366905608894753 0.0013480144012101847 1 
4 5.501330268599851 22.22528347205097 0.3034370599839214 0.6277506553003321 0.016595645375079682 1 
5 8.640027846070268 16.594517925015946 0.32485401945056364 0.5605065993465674 0.0036745508887198186 1 
5
Time=601 Lattice="20.0 0.00000000 0.00000000 0.00000000 25.0 0.00000000 0.00000000 0.00000000 0.000000000000000001" Properties=id:I:1:pos:R:2:radius:R:1:color:R:3
1 13.931653303094121 21.06987186397255 0.3185086263485815 0.3796507362386797 0.014700036356782575 1 
2 11.84398833149519 21.24980747218363 0.3103235394259476 0.44200890577169344 0.003374353269785635 1 
3 8.968891009816456 19.74071464158934 0.31026263500048235 0.5366905608898229 0.0013480144012357198 1 
4 5.66258692028237 21.615093509018404 0.3034370599839214 0.6277506553011132 0.016595645375286072 1 
5 8.716403905295058 15.9680179678944 0.32485401945056364 0.5605065993474934 0.0036745508888327283 1 
5
Time=801 Lattice="20.0 0.00000000 0.00000000 0.00000000 25.0 0.00000000 0.00000000 0.00000000 0.000000000000000001" Properties=id:I:1:pos:R:2:radius:R:1:color:R:3
1 13.7504449643463 20.33916192776325 0.3185086263485815 0.37965074445352254 0.014700034319588384 1 
2 11.756671878603688 20.502044599410247 0.3103235394259476 0.4420088972622227 0.003374354263438628 1 
3 9.024135517228071 18.989900736141912 0.31026263500048235 0.5366905608880685 0.0013480144011066564 1 
4 5.854939445088971 20.88723776616373 0.3034370599839214 0.6277506553016051 0.01659564537541608 1 
5 8.80750791665691 15.220707098628539 0.32485401945056364 0.560506599348293 0.003674550888930206 1 
5
Time=1001 Lattice="20.0 0.00000000 0.00000000 0.00000000 25.0 0.00000000 0.00000000 0.00000000 0.000000000000000001" Properties=id:I:1:pos:R:2:radius:R:1:color:R:3
1 13.549607965128184 19.52930067427952 0.3185086263485815 0.37965077371139794 0.014700027063945909 1 
2 11.6598971813555 19.6732832207359 0.3103235394259476 0.4420088669308623 0.0033743578052402023 1 
3 9.085364171280265 18.157757831269677 0.31026263500048235 0.5366905608879041 0.001348014401094555 1 
4 6.068127809862669 20.080539877658158 0.3034370599839214 0.6277506553013488 0.016595645375348356 1 
5 8.908480416113912 14.392446682721927 0.32485401945056364 0.5605065993472084 0.0036745508887979783 1 
5
Time=1201 Lattice="20.0 0.00000000 0.00000000 0.00000000 25.0 0.00000000 0.00000000 0.00000000 0.000000000000000001" Properties=id:I:1:pos:R:2:radius:R:1:color:R:3
1 13.335618848439879 18.666403946018715 0.3185086263485815 0.3796508874728936 0.014699998852320317 1 
2 11.556784874120472 18.790248669532602 0.3103235394259476 0.44200874890901953 0.003374371586702285 1 
3 9.150602512446362 17.271120299087926 0.31026263500048235 0.5366905608875102 0.0013480144010655781 1 
4 6.295277262830192 19.221013682225497 0.3034370599839214 0.627750655301452 0.016595645375375667 1 
5 9.01606531194414 13.509945892458063 0.32485401945056364 0.5605065993483389 0.0036745508889358125 1 
5
Time=1401 Lattice="20.0 0.00000000 0.00000000 0.00000000 25.0 0.00000000 0.00000000 0.00000000 0.000000000000000001" Properties=id:I:1:pos:R:2:radius:R:1:color:R:3
1 13.112817549845614 17.767970685968308 0.3185086263485815 0.37965135992248605 0.014699881690213246 1 
2 11.44942562570042 17.870848318404782 0.3103235394259476 0.4420082582999638 0.0033744288756404894 1 
3 9.218527550934478 16.34796855393835 0.31026263500048235 0.5366905608871901 0.0013480144010420414 1 
4 6.531781365470855 18.326089794484233 0.3034370599839214 0.6277506552998822 0.016595645374960777 1 
5 9.1280808546365 12.591101251828452 0.32485401945056364 0.5605065993486246 0.003674550888970618 1 
5
Time=1601 Lattice="20.0 0.00000000 0.00000000 0.00000000 25.0 0.00000000 0.00000000 0.00000000 0.000000000000000001" Properties=id:I:1:pos:R:2:radius:R:1:color:R:3
1 12.884113467364957 16.845726014932634 0.3185086263485815 0.37965341410548265 0.014699372281949785 1 
2 11.33921887578497 16.927081107426094 0.3103235394259476 0.44200612280543466 0.0033746782453177304 1 
3 9.288252815294326 15.400350401460548 0.31026263500048235 0.5366905608822117 0.0013480144006757233 1 
4 6.774553566220436 17.407447625885826 0.3034370599839214 0.6277506552998027 0.016595645374939738 1 
5 9.24306515940915 11.647904355609942 0.32485401945056364 0.5605065993500741 0.00367455088914731 1 
5
Time=1801 Lattice="20.0 0.00000000 0.00000000 0.00000000 25.0 0.00000000 0.00000000 0.00000000 0.000000000000000001" Properties=id:I:1:pos:R:2:radius:R:1:color:R:3
1 12.651462518518134 15.907526098769724 0.3185086263485815 0.3796626203476551 0.014697089377770756 1 
2 11.22709585487279 15.96698722541668 0.3103235394259476 0.4419965396146469 0.003375797424929383 1 
3 9.359184323882479 14.436338493254008 0.31026263500048235 0.5366905608533535 0.0013480143985523663 1 
4 7.02152571622429 16.472912984927603 0.3034370599839214 0.6277506552998764 0.016595645374959223 1 
5 9.360038688003621 10.688390191237813 0.32485401945056364 0.5605065993488413 0.0036745508889970413 1 
5
Time=2001 Lattice="20.0 0.00000000 0.00000000 0.00000000 25.0 0.00000000 0.00000000 0.00000000 0.000000000000000001" Properties=id:I:1:pos:R:2:radius:R:1:color:R:3
1 12.416205219595415 14.95863410504433 0.3185086263485815 0.3797046473345596 0.014686670153088277 1 
2 11.11365060749782 14.9959549291612 0.3103235394259476 0.44195272485229964 0.003380916750144236 1 
3 9.430924078237087 13.461341922455357 0.31026263500048235 0.5366905606961551 0.0013480143869857297 1 
4 7.271312049003364 15.527729567217316 0.3034370599839214 0.627750655299919 0.016595645374970547 1 
5 9.478345099226427 9.717942615007322 0.32485401945056364 0.5605065993466594 0.003674550888731032 1 
5
Time=2201 Lattice="20.0 0.00000000 0.00000000 0.00000000 25.0 0.00000000 0.00000000 0.00000000 0.000000000000000001" Properties=id:I:1:pos:R:2:radius:R:1:color:R:3
1 12.179379115484105 14.002574751428769 0.3185086263485815 0.3798979346030052 0.014638800595498769 1 
2 10.999141965895396 14.017596738287269 0.3103235394259476 0.44175087883581593 0.0034045510844866733 1 
3 9.503205398336199 12.478985060136834 0.31026263500048235 0.5366905599124104 0.0013480143293182478 1 
4 7.522984029492155 14.575410919460907 0.3034370599839214 0.6277506553000535 0.01659564537500602 1 
5 9.597544610606837 8.740169088517662 0.32485401945056364 0.5605065993479662 0.003674550888890349 1 
5
Time=2401 Lattice="20.0 0.00000000 0.00000000 0.00000000 25.0 0.00000000 0.00000000 0.00000000 0.000000000000000001" Properties=id:I:1:pos:R:2:radius:R:1:color:R:3
1 11.942320613070327 13.041713548095116 0.3185086263485815 0.3807768307003031 0.014422162880001477 1 
2 10.883102832383852 13.034330655881991 0.3103235394259476 0.4408320291992234 0.0035131912816631083 1 
3 9.575849592510421 11.491696419327404 0.31026263500048235 0.5366905563753729 0.001348014069064818 1 
4 7.775919491271653 13.618311299297192 0.3034370599839214 0.6277506553001042 0.016595645375019452 1 
5 9.717342545190933 7.757486797233204 0.32485401945056364 0.5605065993476621 0.0036745508888532674 1 
5
Time=2601 Lattice="20.0 0.00000000 0.00000000 0.00000000 25.0 0.00000000 0.00000000 0.00000000 0.000000000000000001" Properties=id:I:1:pos:R:2:radius:R:1:color:R:3
1 11.708691998898734 12.077720889076142 0.3185086263485815 0.3844964715857983 0.01352396264166339 1 
2 10.762457143729605 12.047697629869573 0.3103235394259476 0.4369544033598147 0.003990672724511091 1 
3 9.648736919159193 10.501103216769357 0.31026263500048235 0.5366905422341904 0.0013480130285640768 1 
4 8.029701550728312 12.658008180858918 0.3034370599839214 0.6277506552997671 0.016595645374930357 1 
5 9.837541454206939 6.771515380176082 0.32485401945056364 0.560506599348013 0.0036745508888960665 1 
5
Time=2801 Lattice="20.0 0.00000000 0.00000000 0.00000000 25.0 0.00000000 0.00000000 0.00000000 0.000000000000000001" Properties=id:I:1:pos:R:2:radius:R:1:color:R:3
1 11.490031836758323 11.11232495443406 0.3185086263485815 0.39634869080087676 0.010861567548298479 1 
2 10.62607940637873 11.058151384558128 0.3103235394259476 0.4248219760937336 0.005684043630443947 1 
3 9.721787114590564 9.508295719231809 0.31026263500048235 0.5366904916312871 0.0013480093052325448 1 
4 8.284050874317852 11.695558553236134 0.3034370599839214 0.6277506552876511 0.016595645371728418 1 
5 9.958009036788546 5.783340079087628 0.32485401945056364 0.5605065993475278 0.0036745508888368916 1 
4
Time=3001 Lattice="20.0 0.00000000 0.00000000 0.00000000 25.0 0.00000000 0.00000000 0.00000000 0.000000000000000001" Properties=id:I:1:pos:R:2:radius:R:1:color:R:3
1 11.304171946121146 10.14842880505628 0.3185086263485815 0.4135875641636023 0.007523715359997796 1 
2 10.456507835392722 10.064374671704876 0.3103235394259476 0.4079404757658988 0.008548024728976256 1 
3 9.794946304385416 8.514004242925576 0.31026263500048235 0.5366903280550259 0.0013479972694238063 1 
4 8.538780293454606 10.731670653896025 0.3034370599839214 0.6277506538028669 0.01659564497934024 1 
4
Time=3201 Lattice="20.0 0.00000000 0.00000000 0.00000000 25.0 0.00000000 0.00000000 0.00000000 0.000000000000000001" Properties=id:I:1:pos:R:2:radius:R:1:color:R:3
1 11.142819621329025 9.188391238946979 0.3185086263485815 0.4177340295725449 0.0068141221510604755 1 
2 10.262582638027304 9.065421631674429 0.3103235394259476 0.40435125415874734 0.009233948383758461 1 
3 9.868178194659485 7.518717325975943 0.31026263500048235 0.5366899452388938 0.001347969102333868 1 
4 8.793764290839118 9.766819083064156 0.3034370599839214 0.6277504384401564 0.016595588064871103 1 
4
Time=3401 Lattice="20.0 0.00000000 0.00000000 0.00000000 25.0 0.00000000 0.00000000 0.00000000 0.000000000000000001" Properties=id:I:1:pos:R:2:radius:R:1:color:R:3
1 10.975753672116815 8.232472798017067 0.3185086263485815 0.4088103883018663 0.008385868064857582 1 
2 10.075558415890477 8.062634066195626 0.3103235394259476 0.413672153002388 0.007508880452899047 1 
3 9.94145854623264 6.5227606314807876 0.31026263500048235 0.5366896190322334 0.001347945100725001 1 
4 9.04890725533772 8.801328887249644 0.3034370599839214 0.6277308202036753 0.016590403932548736 1 
4
Time=3601 Lattice="20.0 0.00000000 0.00000000 0.00000000 25.0 0.00000000 0.00000000 0.00000000 0.000000000000000001" Properties=id:I:1:pos:R:2:radius:R:1:color:R:3
1 10.78646202593458 7.2823370353908246 0.3185086263485815 0.3957916250671783 0.010979944589324164 1 
2 9.9199681979608 7.056082885958393 0.3103235394259476 0.43502948810734693 0.004239137704067419 1 
3 10.014772307964666 5.526351750747033 0.31026263500048235 0.5366902727461584 0.001347993199854347 1 
4 9.303647834911008 7.835899766051892 0.3034370599839214 0.6271813376804757 0.016445548727131665 1 
3
Time=3801 Lattice="20.0 0.00000000 0.00000000 0.00000000 25.0 0.00000000 0.00000000 0.00000000 0.000000000000000001" Properties=id:I:1:pos:R:2:radius:R:1:color:R:3
1 10.575952181340782 6.3456536867517155 0.3185086263485815 0.38628073488888515 0.013103780315981528 1 
2 9.813513341222485 6.035725363850934 0.3103235394259476 0.4611845859199871 0.0015089131892154217 1 
3 9.553646706756533 6.878321042371983 0.3034370599839214 0.6256463647166745 0.016044432790070673 1 
2
Time=4001 Lattice="20.0 0.00000000 0.00000000 0.00000000 25.0 0.00000000 0.00000000 0.00000000 0.000000000000000001" Properties=id:I:1:pos:R:2:radius:R:1:color:R:3
1 10.367738323317042 5.452049810387458 0.3185086263485815 0.39266012102250203 0.011657752819709377 1 
2 9.793326300307719 5.945150086717063 0.3034370599839214 0.6169604906261235 0.013872194137697469 1 
1
Time=4201 Lattice="20.0 0.00000000 0.00000000 0.00000000 25.0 0.00000000 0.00000000 0.00000000 0.000000000000000001" Properties=id:I:1:pos:R:2:radius:R:1:color:R:3
1 9.932349997976113 5.130254938510128 0.3034370599839214 0.5954121326348891 0.00918789242107898 1 
