10
Time=1 Lattice="20.0 0.00000000 0.00000000 0.00000000 25.0 0.00000000 0.00000000 0.00000000 0.000000000000000001" Properties=id:I:1:pos:R:2:radius:R:1:color:R:3
1 15.054448757627442 18.1456144160885 0.34964278539533356 0.3174994676568785 0.03449644932129975 1 
2 3.73857589616053 23.095988997729926 0.3463919713633291 0.6658047033307366 0.02829161513345302 1 
3 5.379174156258387 9.94057052929074 0.29489334215884383 0.8453952931762261 0.1384725578165486 1 
4 16.698372064895736 9.403229748962977 0.3053858438079837 0.08034859656069582 0.22816788344380212 1 
5 13.151963935488734 10.669230549699842 0.2825471235010375 0.251256661543908 0.06626419150164914 1 
6 9.786077546138484 7.621620308212993 0.2703646481790208 0.5593137774129566 0.003530589251456273 1 
7 19.846268489263508 15.231160426644456 0.32040526349048465 4.6800747000119713E-4 0.4783715826050727 1 
8 5.378099681842741 21.189479218880987 0.28443448720791553 0.6399796279271309 0.01999405861449799 1 
9 19.838844644141304 13.627200827629142 0.26472044772989334 0.0010395099339089997 0.46777533005589844 1 
10 15.617942936027664 11.064595409151165 0.2543154447917231 0.15701955353787783 0.1361807958001071 1 
10
Time=201 Lattice="20.0 0.00000000 0.00000000 0.00000000 25.0 0.00000000 0.00000000 0.00000000 0.000000000000000001" Properties=id:I:1:pos:R:2:radius:R:1:color:R:3
1 14.87174518020727 17.67959295898619 0.34964278539533356 0.3174994676449896 0.03449644932596074 1 
2 3.964067615044925 22.45447321207766 0.3463919713633291 0.6658047033192744 0.028291615129424075 1 
3 5.546505490454075 9.7654237613959 0.29489334215884383 0.8453952931857902 0.13847255782568585 1 
4 16.45739023297745 9.247132088543788 0.3053858438079837 0.08034860017194961 0.22816787786878873 1 
5 13.03670480917205 10.468252261594097 0.2825471235010375 0.25125666154226467 0.06626419150259161 1 
6 9.797180995199062 7.528681988457382 0.2703646481790208 0.559313777421999 0.0035305892525365756 1 
7 18.205267508048912 14.938702239502492 0.32040526349048465 0.028371472723002944 0.33396827936044615 1 
8 5.545469106949288 20.61555057189661 0.28443448720791553 0.6399796279233704 0.019994058613401366 1 
9 18.706842350544246 13.376186215341372 0.26472044772989334 0.03506235024837434 0.3160625599736839 1 
10 15.415263080423005 10.849601161773148 0.2543154447917231 0.1570195489801942 0.13618080009673678 1 
10
Time=401 Lattice="20.0 0.00000000 0.00000000 0.00000000 25.0 0.00000000 0.00000000 0.00000000 0.000000000000000001" Properties=id:I:1:pos:R:2:radius:R:1:color:R:3
1 14.423465045732542 16.53616618866062 0.34964278539533356 0.317499467643095 0.03449644932670354 1 
2 4.517332414050462 20.880454866675205 0.3463919713633291 0.6658047032599432 0.028291615108569257 1 
3 5.957068403638501 9.335684958396888 0.29489334215884383 0.8453952931855506 0.13847255782545698 1 
4 15.866119028585848 8.864132001965134 0.3053858438079837 0.08034863518599045 0.2281678238145104 1 
5 12.753905876671388 9.97513343331204 0.2825471235010375 0.25125666141478753 0.06626419157569852 1 
6 9.824424334971946 7.300649220484787 0.2703646481790208 0.5593137774179742 0.003530589252055738 1 
7 16.50894398791195 14.095117098327124 0.32040526349048465 0.07684440783440916 0.2336555898484292 1 
8 5.956125479843779 19.207363525369537 0.28443448720791553 0.6399796280013865 0.019994058636152445 1 
9 17.33617386076611 12.66207817082879 0.26472044772989334 0.07537010759746526 0.2360123971126451 1 
10 14.91796927838297 10.322092911977434 0.2543154447917231 0.15701950479216042 0.13618084175378403 1 
10
Time=601 Lattice="20.0 0.00000000 0.00000000 0.00000000 25.0 0.00000000 0.00000000 0.00000000 0.000000000000000001" Properties=id:I:1:pos:R:2:radius:R:1:color:R:3
1 13.82662041668017 15.013796415636746 0.34964278539533356 0.3174994676287528 0.03449644933232643 1 
2 5.25395466533678 18.784791193316508 0.3463919713633291 0.6658047015241635 0.028291614498445583 1 
3 6.50369594917174 8.763526442463254 0.29489334215884383 0.8453952931847978 0.13847255782473777 1 
4 15.078894997693672 8.354201369451784 0.3053858438079837 0.08034914308019325 0.22816703973492863 1 
5 12.377384563282895 9.318590121055523 0.2825471235010375 0.2512566577562829 0.06626419367381592 1 
6 9.860696388471817 6.997044125490817 0.2703646481790208 0.5593137774189131 0.0035305892521678706 1 
7 14.939138557625371 12.933672720515139 0.32040526349048465 0.1182871503905426 0.1770521707101474 1 
8 6.50287746272113 17.332489282812443 0.28443448720791553 0.6399796302866446 0.019994059302580858 1 
9 15.930349248041038 11.681325782893458 0.26472044772989334 0.10278984903418009 0.19631579565326324 1 
10 14.255867036585022 9.619763691092855 0.2543154447917231 0.1570188647822558 0.13618144510656488 1 
10
Time=801 Lattice="20.0 0.00000000 0.00000000 0.00000000 25.0 0.00000000 0.00000000 0.00000000 0.000000000000000001" Properties=id:I:1:pos:R:2:radius:R:1:color:R:3
1 13.169354054634148 13.337309162860974 0.34964278539533356 0.3174994368734707 0.03449646138992701 1 
2 6.065148861315998 16.476972689671687 0.3463919713633291 0.665804613251142 0.028291583470636816 1 
3 7.10566147927672 8.13344530739827 0.29489334215884383 0.8453952931858859 0.1384725578257774 1 
4 14.211983268431034 7.792636802337584 0.3053858438079837 0.08036035381141943 0.22814973359085539 1 
5 11.962745904112245 8.595581454672642 0.2825471235010375 0.25125647653218447 0.06626429760415581 1 
6 9.900640452930334 6.662703488168149 0.2703646481790208 0.559313777421557 0.003530589252483729 1 
7 13.557008728178092 11.635382153243201 0.32040526349048465 0.15226947887069753 0.14071809859785067 1 
8 7.104980231931516 15.267811411394042 0.28443448720791553 0.6399797464973744 0.019994093192041207 1 
9 14.593123759388822 10.586196539113315 0.26472044772989334 0.12278265901146224 0.17181243524847378 1 
10 13.526729674181649 8.846344974656645 0.2543154447917231 0.15700479029477388 0.1361947140031251 1 
10
Time=1001 Lattice="20.0 0.00000000 0.00000000 0.00000000 25.0 0.00000000 0.00000000 0.00000000 0.000000000000000001" Properties=id:I:1:pos:R:2:radius:R:1:color:R:3
1 12.514686635192591 11.667461616325957 0.34964278539533356 0.3174952579020448 0.03449809977642532 1 
2 6.873123629606399 14.178294033038675 0.3463919713633291 0.6657995008537729 0.028289786503790326 1 
3 7.705246476701124 7.505855890977915 0.29489334215884383 0.8453952931855956 0.13847255782549994 1 
4 13.348670996793754 7.233029794879328 0.3053858438079837 0.08063798154451307 0.22772165441052816 1 
5 11.549740914380815 7.8754310268423 0.2825471235010375 0.2512462469527964 0.06627016433621857 1 
6 9.940426554596877 6.3296850342066175 0.2703646481790208 0.559313777304656 0.0035305892385174564 1 
7 12.391221404981723 10.330502790181258 0.32040526349048465 0.18141255366150022 0.11464037700413715 1 
8 7.7047134051314305 13.21128516564166 0.28443448720791553 0.6399864764869918 0.019996055848749417 1 
9 13.389531621122098 9.486206544298549 0.26472044772989334 0.13880582253480572 0.15425621312127424 1 
10 12.800310613337782 8.07624891774854 0.2543154447917231 0.1566596209542489 0.13652044883278514 1 
10
Time=1201 Lattice="20.0 0.00000000 0.00000000 0.00000000 25.0 0.00000000 0.00000000 0.00000000 0.000000000000000001" Properties=id:I:1:pos:R:2:radius:R:1:color:R:3
1 11.9047882926413 10.111948981956976 0.34964278539533356 0.31748149280763693 0.034503496756128904 1 
2 7.625442778700349 12.037043109181774 0.3463919713633291 0.6655513727461487 0.02820264627504987 1 
3 8.26393260308987 6.921075581743078 0.29489334215884383 0.8453952924769701 0.13847255714849493 1 
4 12.54772069338908 6.706252916832487 0.3053858438079837 0.08634089126669742 0.21913323129645657 1 
5 11.164624214677664 7.204357661902311 0.2825471235010375 0.25075023684905606 0.06655501436837646 1 
6 9.977498757043968 6.01938241133289 0.2703646481790208 0.5593136394504319 0.0035305727689325384 1 
7 11.446585329855704 9.106410646847824 0.32040526349048465 0.20798304725089262 0.09413536824807511 1 
8 8.264079673665611 11.294408268472953 0.28443448720791553 0.6403121045771887 0.020091140622388537 1 
9 12.354499803382758 8.454997000688682 0.26472044772989334 0.15287876274370593 0.1401294029159098 1 
10 12.120245814443457 7.364049186129967 0.2543154447917231 0.14987824261336036 0.14304796540082443 1 
10
Time=1401 Lattice="20.0 0.00000000 0.00000000 0.00000000 25.0 0.00000000 0.00000000 0.00000000 0.000000000000000001" Properties=id:I:1:pos:R:2:radius:R:1:color:R:3
1 11.367156672011337 8.738689245824395 0.34964278539533356 0.31833447869144094 0.03416994690371311 1 
2 8.276319318392547 10.158889881326777 0.3463919713633291 0.6590900606352508 0.025984860360903417 1 
3 8.758591054464345 6.403313175529309 0.29489334215884383 0.8453946572219442 0.13847195024101422 1 
4 11.871284038908664 6.189382368993432 0.3053858438079837 0.12804673163533586 0.16585816461741254 1 
5 10.813755905782443 6.608268700841495 0.2825471235010375 0.2341834480103736 0.076512620390706 1 
6 10.010315945509236 5.744633906270743 0.2703646481790208 0.5592295178676173 0.0035205299177320515 1 
7 10.708381294913327 8.013943155997842 0.32040526349048465 0.2319007182505078 0.07795406040881475 1 
8 8.774565350660628 9.579507660028142 0.28443448720791553 0.6481477250448371 0.02245183325235206 1 
9 11.501857622762657 7.538836592880587 0.26472044772989334 0.16546867749551813 0.12839699373739943 1 
10 11.49507244294874 6.783555337835729 0.2543154447917231 0.11479609205192709 0.18122429624964742 1 
10
Time=1601 Lattice="20.0 0.00000000 0.00000000 0.00000000 25.0 0.00000000 0.00000000 0.00000000 0.000000000000000001" Properties=id:I:1:pos:R:2:radius:R:1:color:R:3
1 10.923338129150698 7.590933512900633 0.34964278539533356 0.3195374107703329 0.03370261217917547 1 
2 8.747910200392395 8.659968447132629 0.3463919713633291 0.6427677867696425 0.02081594448385715 1 
3 9.177738772550857 5.964491423226572 0.29489334215884383 0.8451541257414443 0.13824230556398776 1 
4 11.352865989599904 5.663443754840898 0.3053858438079837 0.16873975623865378 0.12547810357313754 1 
5 10.406975145785186 6.07078717956721 0.2825471235010375 0.167619507747662 0.1264719443333694 1 
6 10.035234254853574 5.507645015531138 0.2703646481790208 0.5157267985636218 2.473933965533859E-4 1 
7 10.130922487108162 7.081177166912806 0.32040526349048465 0.2324248249248122 0.07762158473297598 1 
8 9.287482380997911 8.032530284035444 0.28443448720791553 0.6636284905725787 0.027532311080493532 1 
9 10.828755313987546 6.857808098004707 0.26472044772989334 0.10904598660893045 0.18830309688189806 1 
10 11.036735128682116 6.30239351458681 0.2543154447917231 0.26105503187524776 0.060790138762958634 1 
10
Time=1801 Lattice="20.0 0.00000000 0.00000000 0.00000000 25.0 0.00000000 0.00000000 0.00000000 0.000000000000000001" Properties=id:I:1:pos:R:2:radius:R:1:color:R:3
1 10.652879225540822 6.945285828787998 0.34964278539533356 0.3015717394202474 0.04105967119537879 1 
2 9.100370831768497 7.476344864466125 0.3463919713633291 0.6425675350205379 0.02075632715896214 1 
3 9.485009265555536 5.610452565258813 0.29489334215884383 0.6852147957131322 0.035569725955614806 1 
4 11.048425335464316 5.296938706259974 0.3053858438079837 0.5080968634231806 0.9999344365041344 1 
5 10.079579393467636 5.778744398367254 0.2825471235010375 0.27809394372301455 0.051940068531457106 1 
6 9.956639030713283 5.062439853076919 0.2703646481790208 0.4235933345249772 0.005872464366750818 1 
7 9.723543873562829 6.227501709369289 0.32040526349048465 0.4448357889936594 0.0030524073666842733 1 
8 9.585038203644757 6.873785896822434 0.28443448720791553 0.3727561874395747 0.016461984777735028 1 
9 10.313420447468966 6.251800950719573 0.26472044772989334 0.2635418910821974 0.05944629983733357 1 
10 10.822410196984396 5.825245260984327 0.2543154447917231 0.28475094415277014 0.04870426109160292 1 
8
Time=2001 Lattice="20.0 0.00000000 0.00000000 0.00000000 25.0 0.00000000 0.00000000 0.00000000 0.000000000000000001" Properties=id:I:1:pos:R:2:radius:R:1:color:R:3
1 10.537894615835441 6.667035628564511 0.34964278539533356 0.3483703267499232 0.023545970538526195 1 
2 9.094568474595942 6.927715364767345 0.3463919713633291 0.16330865586878074 0.13035295376925726 1 
3 9.332834849260372 5.244961270393824 0.29489334215884383 0.3137964856951282 0.03596524778793192 1 
4 11.06533050198347 5.384058059493679 0.3053858438079837 0.6432219103356744 0.9790485198806067 1 
5 9.569271938609289 5.779644527322967 0.32040526349048465 0.6948768090478347 0.960459584866396 1 
6 9.60117059126651 6.40488213618723 0.28443448720791553 0.6627606458362003 0.02723264477442716 1 
7 10.148504928141664 6.101843791986351 0.26472044772989334 0.021370672246852518 0.355383380572736 1 
8 10.784053782977331 5.926389609553947 0.2543154447917231 0.9850765129955996 0.6212467588846395 1 
8
Time=2201 Lattice="20.0 0.00000000 0.00000000 0.00000000 25.0 0.00000000 0.00000000 0.00000000 0.000000000000000001" Properties=id:I:1:pos:R:2:radius:R:1:color:R:3
1 10.556241392017126 6.711881800940087 0.34964278539533356 0.6290005627055841 0.9830723080674804 1 
2 8.845428969800409 6.74483631509458 0.3463919713633291 0.08658523088595388 0.2187737055707985 1 
3 9.254958084619226 5.358932207531636 0.29489334215884383 0.47898357942893066 0.9995581148038534 1 
4 11.132724613458924 5.298132570599138 0.3053858438079837 0.6847507159284557 0.035384919568980155 1 
5 9.556642311755299 6.02486680020754 0.32040526349048465 0.38167110855828545 0.9857965350331093 1 
6 9.706455528450324 6.845091343261241 0.28443448720791553 0.6669440326153322 0.9713063653019455 1 
7 10.298467127288491 5.994204820116359 0.26472044772989334 0.8081682730974333 0.10625856776795028 1 
8 10.865273836874586 6.008503521886749 0.2543154447917231 0.988803794482134 0.6052181091821546 1 
8
Time=2401 Lattice="20.0 0.00000000 0.00000000 0.00000000 25.0 0.00000000 0.00000000 0.00000000 0.000000000000000001" Properties=id:I:1:pos:R:2:radius:R:1:color:R:3
1 10.595174510243243 6.825911072094285 0.34964278539533356 0.8678227169418955 0.8386834051167582 1 
2 8.655152326522693 6.540636348125412 0.3463919713633291 0.2570045818510617 0.06301804755960155 1 
3 9.242078694066738 5.4975940503289396 0.29489334215884383 0.4993363633317911 0.9999995595861786 1 
4 11.12466683815297 5.36191941449879 0.3053858438079837 0.12352471121964625 0.17096146587709632 1 
5 9.528439810362674 6.284319862996703 0.32040526349048465 0.5464279060539986 0.9978397830019625 1 
6 9.82897442578564 7.171877770653865 0.28443448720791553 0.6790698537368988 0.9668340042056123 1 
7 10.302673581938782 5.7647687516007915 0.26472044772989334 0.40209796886143273 0.009678480689514268 1 
8 11.103735544792414 6.053514568873198 0.2543154447917231 0.9562413835826583 0.7045575711299429 1 
8
Time=2601 Lattice="20.0 0.00000000 0.00000000 0.00000000 25.0 0.00000000 0.00000000 0.00000000 0.000000000000000001" Properties=id:I:1:pos:R:2:radius:R:1:color:R:3
1 10.62020764652141 6.783107543891266 0.34964278539533356 0.5404528459125358 0.001639119455011162 1 
2 8.590338039357766 6.3124353814375604 0.3463919713633291 0.4781866152194915 4.7605037954639995E-4 1 
3 9.266471097503612 5.498335602230069 0.29489334215884383 0.9289760038000141 0.24313507798111028 1 
4 11.061703953658572 5.317246593181835 0.3053858438079837 0.1945085822965693 0.8958219217142325 1 
5 9.58042565459294 6.414995374044196 0.32040526349048465 0.894728708194481 0.8069026668621768 1 
6 9.881949481501936 7.285661529900083 0.28443448720791553 0.8889113878310697 0.8142418374680738 1 
7 10.24382085786217 5.546213522883164 0.26472044772989334 0.3344949677260549 0.02818638818702951 1 
8 11.225409177267096 6.127647740165645 0.2543154447917231 0.9278143643036262 0.7587950341399237 1 
8
Time=2801 Lattice="20.0 0.00000000 0.00000000 0.00000000 25.0 0.00000000 0.00000000 0.00000000 0.000000000000000001" Properties=id:I:1:pos:R:2:radius:R:1:color:R:3
1 10.604823679744133 6.638813007868575 0.34964278539533356 0.3852674661971057 0.013341551304030363 1 
2 8.627274432018645 6.077094752187658 0.3463919713633291 0.6583451192029803 0.025735492341463606 1 
3 9.331405378349704 5.450867643989184 0.29489334215884383 0.8860252894906726 0.18221945328003092 1 
4 10.976822098079301 5.360022842212054 0.3053858438079837 5.0645730152287793E-5 0.5071164011383783 1 
5 9.656899532412911 6.40562532628467 0.32040526349048465 0.8637138512499367 0.15690783394408586 1 
6 9.909167657747819 7.246234309107773 0.28443448720791553 0.616934219022668 0.013865874041372517 1 
7 10.163225979501663 5.367745562001534 0.26472044772989334 0.25932536673249584 0.06173555825101168 1 
8 11.244828078008199 6.122993204053304 0.2543154447917231 0.3806240882102525 0.014459690978837036 1 
8
Time=3001 Lattice="20.0 0.00000000 0.00000000 0.00000000 25.0 0.00000000 0.00000000 0.00000000 0.000000000000000001" Properties=id:I:1:pos:R:2:radius:R:1:color:R:3
1 10.54616011163513 6.458094341101759 0.34964278539533356 0.33347871033303433 0.028544105893615446 1 
2 8.726018087145246 5.862059779261472 0.3463919713633291 0.7438198054175742 0.06347748914158358 1 
3 9.404811924340867 5.373528945262058 0.29489334215884383 0.7641962689912105 0.07549990406229129 1 
4 10.87576719544862 5.330208506422108 0.3053858438079837 0.05954972105862094 0.26334930428908226 1 
5 9.713239986953512 6.2841682911664085 0.32040526349048465 0.5816713815033434 0.006715309944312853 1 
6 9.92998850268192 7.114108178093399 0.28443448720791553 0.5565907811304716 0.003212838842384047 1 
7 10.089812726567464 5.218479144382708 0.26472044772989334 0.37361810562835185 0.016235990616257634 1 
8 11.224790745263574 6.04753908247004 0.2543154447917231 0.39490748281742116 0.011169187926712842 1 
8
Time=3201 Lattice="20.0 0.00000000 0.00000000 0.00000000 25.0 0.00000000 0.00000000 0.00000000 0.000000000000000001" Properties=id:I:1:pos:R:2:radius:R:1:color:R:3
1 10.503464977149328 6.277877860951241 0.34964278539533356 0.44524303585158004 0.0030073693934198342 1 
2 8.809483933188124 5.706688970077667 0.3463919713633291 0.6750659206378414 0.03164978549036085 1 
3 9.437447584756491 5.2667843682810975 0.29489334215884383 0.6059315845636919 0.011350330613203619 1 
4 10.787097933281222 5.327933780182776 0.3053858438079837 0.030589397535402685 0.6722024572816072 1 
5 9.6942055024041 6.0849804974300685 0.32040526349048465 0.36886579566318717 0.017502517671904305 1 
6 9.942646987076008 6.94088941533201 0.28443448720791553 0.5156482886803855 2.4492892880484396E-4 1 
7 10.105872238334644 5.063812197987871 0.26472044772989334 0.6383798880154503 0.01953043114799513 1 
8 11.209196468909816 5.928660248461197 0.2543154447917231 0.49367355016994713 4.002556949839198E-5 1 
7
Time=3401 Lattice="20.0 0.00000000 0.00000000 0.00000000 25.0 0.00000000 0.00000000 0.00000000 0.000000000000000001" Properties=id:I:1:pos:R:2:radius:R:1:color:R:3
1 10.484976547993107 6.116068085232805 0.34964278539533356 0.41610099014033014 0.007089302059118396 1 
2 8.81056934446744 5.629289110057395 0.3463919713633291 0.3540487220868053 0.021775968320803196 1 
3 9.4962107132318 5.0869240550045385 0.29489334215884383 0.6997110824255361 0.04161644493238997 1 
4 10.700997887805771 5.302929196879444 0.3053858438079837 0.0543934350557328 0.7267923924618517 1 
5 9.637910182067577 5.8861411997966275 0.32040526349048465 0.39925407230584864 0.010254905024006555 1 
6 9.938964557844823 6.75363541368835 0.28443448720791553 0.46174941125148533 0.001465254510388203 1 
7 11.237784102592451 5.823223428003915 0.2543154447917231 0.7433547155625153 0.06321803790279151 1 
6
Time=3601 Lattice="20.0 0.00000000 0.00000000 0.00000000 25.0 0.00000000 0.00000000 0.00000000 0.000000000000000001" Properties=id:I:1:pos:R:2:radius:R:1:color:R:3
1 10.45777686172053 6.034223824380853 0.34964278539533356 8.886652547784868E-5 0.4905735145351775 1 
2 8.793337843770917 5.549022284055674 0.3463919713633291 0.4530475714638986 0.0022094120470312895 1 
3 10.597147023947766 5.313316008673464 0.3053858438079837 0.05034412646759584 0.7186540541536117 1 
4 9.632339521926346 5.7312744101547715 0.32040526349048465 0.5540507527439138 0.00293006917756905 1 
5 9.907742883262467 6.5813568208832685 0.28443448720791553 0.3218635837984557 0.03280901418919674 1 
6 11.284731982786818 5.733172805566211 0.2543154447917231 0.6500044234341252 0.023031790419743292 1 
6
Time=3801 Lattice="20.0 0.00000000 0.00000000 0.00000000 25.0 0.00000000 0.00000000 0.00000000 0.000000000000000001" Properties=id:I:1:pos:R:2:radius:R:1:color:R:3
1 10.486361566194043 6.07709159112357 0.34964278539533356 0.9686682048616599 0.6742128403756428 1 
2 8.79543067630348 5.444968080646339 0.3463919713633291 0.5688995947242621 0.004769906157922943 1 
3 10.520858926212687 5.199552575932307 0.3053858438079837 0.29655740592917246 0.04326034667687051 1 
4 9.669055765182028 5.562067747595979 0.32040526349048465 0.6552340750698704 0.024708108698242304 1 
5 9.80344223775398 6.475877280718197 0.28443448720791553 0.05864734556108642 0.26503652534973665 1 
6 11.283901393570238 5.636155545052332 0.2543154447917231 0.34861976637486447 0.023466659227710074 1 
6
Time=4001 Lattice="20.0 0.00000000 0.00000000 0.00000000 25.0 0.00000000 0.00000000 0.00000000 0.000000000000000001" Properties=id:I:1:pos:R:2:radius:R:1:color:R:3
1 10.554041253798102 6.069862254433036 0.34964278539533356 0.8820344764014811 0.17743270649266674 1 
2 8.827132911345394 5.341897060305604 0.3463919713633291 0.97608718528276 0.34722240998909915 1 
3 10.444468099275346 5.018842507966843 0.3053858438079837 0.33856628123233956 0.02677790156751564 1 
4 9.732448223347683 5.403672095375341 0.32040526349048465 0.6948211313119669 0.039516855037749155 1 
5 9.663750441927586 6.382673508867313 0.28443448720791553 0.1446796774070055 0.14822241635884426 1 
6 11.223991920056257 5.52774827636032 0.2543154447917231 0.21011393330607098 0.09261066737490176 1 
5
Time=4201 Lattice="20.0 0.00000000 0.00000000 0.00000000 25.0 0.00000000 0.00000000 0.00000000 0.000000000000000001" Properties=id:I:1:pos:R:2:radius:R:1:color:R:3
1 10.557997548969512 6.018283086057822 0.34964278539533356 0.2797779213771848 0.05110999555899376 1 
2 8.88050746997253 5.410634270408726 0.3463919713633291 0.9155064662878525 0.7781265475875716 1 
3 9.803045255163076 5.276655767589482 0.32040526349048465 0.7891172077733151 0.09206466177914702 1 
4 9.577864504084733 6.245887768870738 0.28443448720791553 0.32782773268676213 0.03057832349984202 1 
5 11.126547358796545 5.402189740425437 0.2543154447917231 0.1860094933336256 0.11088567011302003 1 
5
Time=4401 Lattice="20.0 0.00000000 0.00000000 0.00000000 25.0 0.00000000 0.00000000 0.00000000 0.000000000000000001" Properties=id:I:1:pos:R:2:radius:R:1:color:R:3
1 10.502773878063442 5.950838231094983 0.34964278539533356 0.14154331577446305 0.15141886807511556 1 
2 8.963437077572491 5.432955067508202 0.3463919713633291 0.9996366592376766 0.48094196374718184 1 
3 9.894844214312808 5.158559161797352 0.32040526349048465 0.813768814557668 0.11070688291330433 1 
4 9.547960033774164 6.0847860113664805 0.28443448720791553 0.48929687684831724 1.1456997147846204E-4 1 
5 11.00936500959677 5.260947881376353 0.2543154447917231 0.17307706635186443 0.12168611517035655 1 
5
Time=4601 Lattice="20.0 0.00000000 0.00000000 0.00000000 25.0 0.00000000 0.00000000 0.00000000 0.000000000000000001" Properties=id:I:1:pos:R:2:radius:R:1:color:R:3
1 10.422216003642347 5.889313865448776 0.34964278539533356 0.04192861855909785 0.2995739300768896 1 
2 9.041767142498848 5.387679206759615 0.3463919713633291 0.744483476614096 0.06384884539567615 1 
3 9.980342855485311 5.045962139945521 0.32040526349048465 0.7821720438995093 0.08723016384239823 1 
4 9.579382738051558 5.950943057002456 0.28443448720791553 0.788194829330344 0.09141250588490374 1 
5 10.933586394737132 5.321877375131245 0.2543154447917231 0.08403184279932507 0.7774355640415889 1 
4
Time=4801 Lattice="20.0 0.00000000 0.00000000 0.00000000 25.0 0.00000000 0.00000000 0.00000000 0.000000000000000001" Properties=id:I:1:pos:R:2:radius:R:1:color:R:3
1 10.359640088745875 5.8737508771978435 0.34964278539533356 0.7906932847689858 0.09318626597640872 1 
2 9.066944488723491 5.381775893415129 0.3463919713633291 0.48048342788985376 0.9996189582202315 1 
3 9.62946142015376 5.8915275165454775 0.28443448720791553 0.5251867182236856 6.347737125455E-4 1 
4 10.890149541459794 5.300793787781706 0.2543154447917231 0.2913933550986018 0.045595700171111975 1 
4
Time=5001 Lattice="20.0 0.00000000 0.00000000 0.00000000 25.0 0.00000000 0.00000000 0.00000000 0.000000000000000001" Properties=id:I:1:pos:R:2:radius:R:1:color:R:3
1 10.421365079239527 5.872409479514357 0.34964278539533356 0.9939904864302571 0.5772877695136682 1 
2 9.03538113453362 5.344944431342941 0.3463919713633291 0.2590097842591754 0.06190900954574419 1 
3 9.608241706634205 5.901654644770275 0.28443448720791553 0.2577324402844028 0.9373859045619206 1 
4 10.862912777291035 5.276435609837894 0.2543154447917231 0.34080680386685636 0.9739805125792773 1 
4
Time=5201 Lattice="20.0 0.00000000 0.00000000 0.00000000 25.0 0.00000000 0.00000000 0.00000000 0.000000000000000001" Properties=id:I:1:pos:R:2:radius:R:1:color:R:3
1 10.45162121531147 5.9170760704074565 0.34964278539533356 0.5007616906867726 0.9999994198269611 1 
2 9.007246152605763 5.379387537402324 0.3463919713633291 0.04061963702376298 0.30259259863971477 1 
3 9.611836345951696 5.932269600898845 0.28443448720791553 0.8354565253423905 0.870768013190472 1 
4 10.86272464128342 5.253886524964468 0.2543154447917231 0.5140124149321444 0.9998036136601749 1 
4
Time=5401 Lattice="20.0 0.00000000 0.00000000 0.00000000 25.0 0.00000000 0.00000000 0.00000000 0.000000000000000001" Properties=id:I:1:pos:R:2:radius:R:1:color:R:3
1 10.445833460411134 5.974663995637199 0.34964278539533356 0.4783778029715924 0.9995322618166566 1 
2 9.005484342785387 5.34819325992887 0.3463919713633291 0.6462013203702894 0.9781476486630296 1 
3 9.63418782686057 5.943279545479409 0.28443448720791553 0.8885124863831646 0.18526511485955144 1 
4 10.855650332937078 5.277921854732877 0.2543154447917231 0.22996220033080766 0.07919174586301048 1 
4
Time=5601 Lattice="20.0 0.00000000 0.00000000 0.00000000 25.0 0.00000000 0.00000000 0.00000000 0.000000000000000001" Properties=id:I:1:pos:R:2:radius:R:1:color:R:3
1 10.457714120817256 6.008000507681629 0.34964278539533356 0.889387485714092 0.8136516953074824 1 
2 9.03679077575744 5.36372389019756 0.3463919713633291 0.9027829296022734 0.20374687913709644 1 
3 9.634228801095515 5.920919808816186 0.28443448720791553 0.5042862165749444 1.8371990057330922E-5 1 
4 10.82173155976888 5.269488401573858 0.2543154447917231 0.056600806842674156 0.7310782454222647 1 
4
Time=5801 Lattice="20.0 0.00000000 0.00000000 0.00000000 25.0 0.00000000 0.00000000 0.00000000 0.000000000000000001" Properties=id:I:1:pos:R:2:radius:R:1:color:R:3
1 10.478691727257441 6.0197006282102326 0.34964278539533356 0.9627970959585642 0.6892586800448516 1 
2 9.06818467336325 5.360077670381238 0.3463919713633291 0.9979763044156829 0.4550600373776398 1 
3 9.649821462151003 5.892164991320894 0.28443448720791553 0.9250833503279857 0.23674319519918396 1 
4 10.763024525929877 5.252910519584746 0.2543154447917231 0.01730585699886067 0.3695915481558206 1 
4
Time=6001 Lattice="20.0 0.00000000 0.00000000 0.00000000 25.0 0.00000000 0.00000000 0.00000000 0.000000000000000001" Properties=id:I:1:pos:R:2:radius:R:1:color:R:3
1 10.498860095295187 6.031576227473162 0.34964278539533356 0.890100926726437 0.812763915705081 1 
2 9.079326192423496 5.358720984454879 0.3463919713633291 0.8127274831855231 0.89013013375084 1 
3 9.699594093461066 5.873902141284719 0.28443448720791553 0.969266305698011 0.3274047094021945 1 
4 10.692949387636425 5.258152354008159 0.2543154447917231 0.07019441530617654 0.24452561896346525 1 
4
Time=6201 Lattice="20.0 0.00000000 0.00000000 0.00000000 25.0 0.00000000 0.00000000 0.00000000 0.000000000000000001" Properties=id:I:1:pos:R:2:radius:R:1:color:R:3
1 10.53728921055584 6.060790726368863 0.34964278539533356 0.9005629501901111 0.7992479288733585 1 
2 9.085633080800292 5.355157978407812 0.3463919713633291 0.7539045719476551 0.9307348004794574 1 
3 9.744708355612259 5.844651037359205 0.28443448720791553 0.8337093979923864 0.12765870804924268 1 
4 10.614997811661835 5.255259743877927 0.2543154447917231 0.05020069365689167 0.28164115769390374 1 
4
Time=6401 Lattice="20.0 0.00000000 0.00000000 0.00000000 25.0 0.00000000 0.00000000 0.00000000 0.000000000000000001" Properties=id:I:1:pos:R:2:radius:R:1:color:R:3
1 10.58837803673577 6.0951628717475375 0.34964278539533356 0.9350964637233116 0.7463555707822922 1 
2 9.095061626471205 5.353090529204338 0.3463919713633291 0.734838733689571 0.9414190403223208 1 
3 9.784354604417985 5.7960239968359355 0.28443448720791553 0.8259526956177956 0.12084984475871213 1 
4 10.526324854354876 5.253666708348761 0.2543154447917231 0.03318287355247895 0.3208861522514824 1 
4
Time=6601 Lattice="20.0 0.00000000 0.00000000 0.00000000 25.0 0.00000000 0.00000000 0.00000000 0.000000000000000001" Properties=id:I:1:pos:R:2:radius:R:1:color:R:3
1 10.628009767451697 6.103790468659402 0.34964278539533356 0.9622155166647919 0.3093253657292099 1 
2 9.103525529143864 5.352210633408167 0.3463919713633291 0.7415083472347506 0.937805571248173 1 
3 9.839759525595275 5.739499198883934 0.28443448720791553 0.8574042603956602 0.15033988696016376 1 
4 10.43087534064813 5.195252655889768 0.2543154447917231 0.11229979142694957 0.1842650664363964 1 
4
Time=6801 Lattice="20.0 0.00000000 0.00000000 0.00000000 25.0 0.00000000 0.00000000 0.00000000 0.000000000000000001" Properties=id:I:1:pos:R:2:radius:R:1:color:R:3
1 10.65077976486862 6.070802606725527 0.34964278539533356 0.6586384053957511 0.025833514118202006 1 
2 9.115970057004557 5.349657157460829 0.3463919713633291 0.88192040874168 0.8227023417742549 1 
3 9.887984504496735 5.687822917969103 0.28443448720791553 0.8005126204632051 0.10038497908319616 1 
4 10.352586571908798 5.10583867712376 0.2543154447917231 0.2462641459986744 0.06916579013010354 1 
3