10
Time=1 Lattice="20.0 0.00000000 0.00000000 0.00000000 25.0 0.00000000 0.00000000 0.00000000 0.000000000000000001" Properties=id:I:1:pos:R:2:radius:R:1:color:R:3
1 4.036885359376426 8.533799936609277 0.2749749553608393 0.931771106485718 0.2478617212637107 1 
2 1.101962367389854 5.268940324379548 0.2570571772461184 0.9997762335403886 0.48504284825968125 1 
3 15.677658420965162 22.334149785405454 0.3441488824864113 0.3421840565396536 0.02555914173659035 1 
4 0.6485171180978289 20.82536622621679 0.3086637385381189 0.7561409218886332 0.07059130407729158 1 
5 3.20913058290854 23.927291160175937 0.2954098717561283 0.6707951279542369 0.030075512164884244 1 
6 19.397238143657997 19.941411540731078 0.2580229796468509 0.23201756916439858 0.07787985506085815 1 
7 7.266125263810941 22.48401358722587 0.27783791539212643 0.5796759376412678 0.006389075322491666 1 
8 11.268363310164506 22.113698572584784 0.2894529554170772 0.4604872598294495 0.0015637017991019242 1 
9 3.658308541055187 6.087284883170058 0.27348867743843575 0.9930013766019621 0.4166354831563788 1 
10 9.544581775286067 19.771188098071303 0.27407577371325886 0.518392156677758 3.3838593229834624E-4 1 
10
Time=201 Lattice="20.0 0.00000000 0.00000000 0.00000000 25.0 0.00000000 0.00000000 0.00000000 0.000000000000000001" Properties=id:I:1:pos:R:2:radius:R:1:color:R:3
1 4.0677009010196254 8.51580480560435 0.2749749553608393 0.9317711065273246 0.24786172133495932 1 
2 1.1376314409017754 5.267872831149897 0.2570571772461184 0.9997762335397671 0.48504284823891436 1 
3 15.666395083277084 22.300288899840996 0.3441488824864113 0.3421840565961434 0.025559141717799827 1 
4 0.6667979181124417 20.79471929002334 0.3086637385381189 0.7561409220127445 0.07059130415132353 1 
5 3.2213202461309334 23.89375260836234 0.2954098717561283 0.6707951279124578 0.030075512149699557 1 
6 19.37811221409581 19.911284789070304 0.2580229796468509 0.23201756878625068 0.0778798553009249 1 
7 7.2718117424571505 22.448784532345755 0.27783791539212643 0.5796759377282377 0.006389075336529881 1 
8 11.265543282444328 22.078125130373248 0.2894529554170772 0.4604872598841949 0.001563701794762118 1 
9 3.693494092435647 6.081335150302572 0.27348867743843575 0.9930013765854484 0.41663548305872067 1 
10 9.545894425132614 19.735527204959823 0.27407577371325886 0.5183921569023238 3.3838594056445626E-4 1 
10
Time=401 Lattice="20.0 0.00000000 0.00000000 0.00000000 25.0 0.00000000 0.00000000 0.00000000 0.000000000000000001" Properties=id:I:1:pos:R:2:radius:R:1:color:R:3
1 4.145333776351281 8.470470091782124 0.2749749553608393 0.9317711065543866 0.24786172138130108 1 
2 1.2274917058668124 5.265183520353863 0.2570571772461184 0.9997762335396079 0.48504284823359056 1 
3 15.638019619340037 22.214983960597504 0.3441488824864113 0.3421840565893466 0.02555914172006074 1 
4 0.7128523112140884 20.717511178475494 0.3086637385381189 0.7561409220283541 0.07059130416063464 1 
5 3.2520293803794282 23.809259717020417 0.2954098717561283 0.6707951279096359 0.030075512148673933 1 
6 19.329928705838476 19.835387166281873 0.2580229796468509 0.23201756878398544 0.07787985530236297 1 
7 7.286137555481601 22.360032796058135 0.27783791539212643 0.5796759377255342 0.006389075336093453 1 
8 11.258438852385476 21.988505787111254 0.2894529554170772 0.46048725988779887 0.001563701794476402 1 
9 3.782136231371193 6.06634612705437 0.27348867743843575 0.9930013765772943 0.41663548301049824 1 
10 9.549201353277207 19.645687548686944 0.27407577371325886 0.5183921569016501 3.3838594053964277E-4 1 
10
Time=601 Lattice="20.0 0.00000000 0.00000000 0.00000000 25.0 0.00000000 0.00000000 0.00000000 0.000000000000000001" Properties=id:I:1:pos:R:2:radius:R:1:color:R:3
1 4.2543366816734105 8.406816446389941 0.2749749553608393 0.9317711065987393 0.2478617214572525 1 
2 1.3536628661152936 5.261407508078946 0.2570571772461184 0.9997762335395285 0.485042848230941 1 
3 15.598178147597379 22.09520885017293 0.3441488824864113 0.34218405658804496 0.025559141720493672 1 
4 0.7775164451829644 20.609104676248688 0.3086637385381189 0.7561409220367143 0.07059130416562143 1 
5 3.2951475160740378 23.690624788255853 0.2954098717561283 0.6707951279137372 0.03007551215016452 1 
6 19.262275120084837 19.728820697430276 0.2580229796468509 0.23201756879527347 0.07787985529519681 1 
7 7.306252168447342 22.235418100721624 0.27783791539212643 0.5796759377261658 0.006389075336195427 1 
8 11.248463651625253 21.862672900638326 0.2894529554170772 0.46048725988908124 0.001563701794374761 1 
9 3.9065970430608106 6.045300312682205 0.27348867743843575 0.9930013765598923 0.4166354829075867 1 
10 9.553844550812201 19.519545324729172 0.27407577371325886 0.5183921568992196 3.383859404502143E-4 1 
10
Time=801 Lattice="20.0 0.00000000 0.00000000 0.00000000 25.0 0.00000000 0.00000000 0.00000000 0.000000000000000001" Properties=id:I:1:pos:R:2:radius:R:1:color:R:3
1 4.384359126218788 8.33088817137552 0.2749749553608393 0.9317711067062329 0.24786172164132853 1 
2 1.504163936370462 5.257177302702555 0.2570571772461184 0.9997413577469536 0.5160802785184639 1 
3 15.550653858821144 21.952336945919644 0.3441488824864113 0.34218405659346274 0.025559141718691503 1 
4 0.8546500660511575 20.47979364199704 0.3086637385381189 0.7561409220322401 0.07059130416295256 1 
5 3.3465803232128213 23.549112932218634 0.2954098717561283 0.6707951279170185 0.03007551215135712 1 
6 19.181575577485056 19.601704518782835 0.2580229796468509 0.23201756879264135 0.07787985529686775 1 
7 7.330245576156147 22.08677337180388 0.27783791539212643 0.5796759377290771 0.0063890753366653286 1 
8 11.236564886323595 21.71257507109415 0.2894529554170772 0.4604872598848804 0.0015637017947077725 1 
9 4.055058214225985 6.020196135605442 0.27348867743843575 0.9930013765227612 0.4166354826880003 1 
10 9.559383117808615 19.369078506709737 0.27407577371325886 0.5183921568952581 3.383859403043865E-4 1 
10
Time=1001 Lattice="20.0 0.00000000 0.00000000 0.00000000 25.0 0.00000000 0.00000000 0.00000000 0.000000000000000001" Properties=id:I:1:pos:R:2:radius:R:1:color:R:3
1 4.528465746950888 8.246735261063032 0.2749749553608393 0.9317711069318393 0.24786172202766554 1 
2 1.670959498046878 5.2603356559536 0.2570571772461184 0.9999828886774885 0.5041365480432531 1 
3 15.49798168609293 21.793988997689226 0.3441488824864113 0.3421840565924241 0.025559141719037004 1 
4 0.9401388867387783 20.33647549232774 0.3086637385381189 0.7561409220317252 0.07059130416264547 1 
5 3.4035843893702658 23.39227235414747 0.2954098717561283 0.6707951279145878 0.030075512150473716 1 
6 19.092134570445918 19.460818973924177 0.2580229796468509 0.23201756879443475 0.07787985529572922 1 
7 7.35683797654135 21.9220272801033 0.27783791539212643 0.5796759377288622 0.00638907533663069 1 
8 11.22337723349438 21.54621847728946 0.2894529554170772 0.4604872598748615 0.0015637017955019705 1 
9 4.219600864976617 5.992372645964623 0.27348867743843575 0.9930013764431771 0.4166354822173563 1 
10 9.565521628557773 19.202312955187114 0.27407577371325886 0.5183921569007208 3.383859405054479E-4 1 
10
Time=1201 Lattice="20.0 0.00000000 0.00000000 0.00000000 25.0 0.00000000 0.00000000 0.00000000 0.000000000000000001" Properties=id:I:1:pos:R:2:radius:R:1:color:R:3
1 4.682009492690196 8.157071420787245 0.2749749553608393 0.9317711074226135 0.24786172286808578 1 
2 1.8486792620903725 5.260411748852313 0.2570571772461184 0.9999907497326793 0.49695858885494903 1 
3 15.441860165414461 21.625271301220387 0.3441488824864113 0.34218405658162243 0.025559141722630074 1 
4 1.0312261225485875 20.183771852367745 0.3086637385381189 0.756140922030778 0.07059130416208048 1 
5 3.464321486624127 23.225160741137454 0.2954098717561283 0.6707951279165698 0.030075512151194084 1 
6 18.9968363310561 19.31070724301757 0.2580229796468509 0.23201756879717805 0.07787985529398767 1 
7 7.385171836163961 21.746492444290748 0.27783791539212643 0.5796759377307223 0.006389075336930949 1 
8 11.209325959497232 21.36896767225814 0.2894529554170772 0.46048725987759087 0.0015637017952856436 1 
9 4.394918937050039 5.962727076360253 0.27348867743843575 0.9930013762661554 0.41663548117048405 1 
10 9.57206213258669 19.024626410977117 0.27407577371325886 0.5183921568977459 3.383859403959799E-4 1 
10
Time=1401 Lattice="20.0 0.00000000 0.00000000 0.00000000 25.0 0.00000000 0.00000000 0.00000000 0.000000000000000001" Properties=id:I:1:pos:R:2:radius:R:1:color:R:3
1 4.841876599322113 8.063714973433981 0.2749749553608393 0.9317711085268126 0.2478617247589579 1 
2 2.0337174152662145 5.258378047609034 0.2570571772461184 0.9999427097888566 0.492431187082829 1 
3 15.38342740357482 21.449605338212848 0.3441488824864113 0.3421840565825126 0.025559141722333922 1 
4 1.126064585445086 20.02477944949529 0.3086637385381189 0.7561409220313409 0.07059130416241621 1 
5 3.527559907387804 23.0511670045897 0.2954098717561283 0.6707951279113381 0.030075512149292605 1 
6 18.89761344367967 19.15441349125973 0.2580229796468509 0.2320175687957033 0.07787985529492392 1 
7 7.414672563358362 21.563728593076892 0.27783791539212643 0.5796759377298927 0.006389075336797001 1 
8 11.194696014745597 21.184417183412084 0.2894529554170772 0.4604872598792596 0.0015637017951533605 1 
9 4.577457097516961 5.931860618699304 0.27348867743843575 0.9930013758711307 0.41663547883438556 1 
10 9.578871992860428 18.839622237995364 0.27407577371325886 0.5183921568930271 3.383859402222855E-4 1 
10
Time=1601 Lattice="20.0 0.00000000 0.00000000 0.00000000 25.0 0.00000000 0.00000000 0.00000000 0.000000000000000001" Properties=id:I:1:pos:R:2:radius:R:1:color:R:3
1 5.005980684238505 7.967884289766313 0.2749749553608393 0.9317711110404141 0.2478617290633443 1 
2 2.223653903896987 5.260020746018915 0.2570571772461184 0.9998953581096053 0.510228926652859 1 
3 15.323445990868183 21.26928367799553 0.3441488824864113 0.34218405658458256 0.025559141721645418 1 
4 1.2234165641046177 19.861573250885332 0.3086637385381189 0.7561409220313821 0.07059130416244075 1 
5 3.592474344005848 22.872561890061007 0.2954098717561283 0.6707951279117397 0.030075512149438544 1 
6 18.795760839584513 18.99397746645687 0.2580229796468509 0.23201756879625574 0.0778798552945732 1 
7 7.444955152052284 21.376120928424694 0.27783791539212643 0.5796759377299792 0.006389075336810934 1 
8 11.179678330720613 20.99497552964798 0.2894529554170772 0.46048725988313055 0.0015637017948464949 1 
9 4.764833089745769 5.900176102015399 0.27348867743843575 0.9930013749668163 0.4166354734864488 1 
10 9.585862335719511 18.649714876046968 0.27407577371325886 0.5183921568892775 3.383859400842293E-4 1 
10
Time=1801 Lattice="20.0 0.00000000 0.00000000 0.00000000 25.0 0.00000000 0.00000000 0.00000000 0.000000000000000001" Properties=id:I:1:pos:R:2:radius:R:1:color:R:3
1 5.1729237635389955 7.870395742436705 0.2749749553608393 0.9317711168377807 0.24786173899097425 1 
2 2.416872144786587 5.262068612774062 0.2570571772461184 0.9999988972925595 0.5010500981975919 1 
3 15.262426902146723 21.08584246034844 0.3441488824864113 0.34218405658482043 0.02555914172156626 1 
4 1.3224527280574598 19.695543591639534 0.3086637385381189 0.7561409220317955 0.07059130416268738 1 
5 3.658511797752183 22.690866914272863 0.2954098717561283 0.6707951279124756 0.030075512149706052 1 
6 18.692146189559796 18.830765904914106 0.2580229796468509 0.2320175688031355 0.07787985529020558 1 
7 7.475761628306451 21.18526765876023 0.27783791539212643 0.579675937730001 0.006389075336814487 1 
8 11.164400841369469 20.802256542937776 0.2894529554170772 0.46048725987966665 0.001563701795121053 1 
9 4.955450678696965 5.867943441197772 0.27348867743843575 0.9930013728736136 0.4166354611076618 1 
10 9.592973611226832 18.45652212441791 0.27407577371325886 0.5183921568912785 3.383859401578926E-4 1 
10
Time=2001 Lattice="20.0 0.00000000 0.00000000 0.00000000 25.0 0.00000000 0.00000000 0.00000000 0.000000000000000001" Properties=id:I:1:pos:R:2:radius:R:1:color:R:3
1 5.341769116142506 7.7717963464658615 0.2749749553608393 0.9317711303240135 0.24786176208531208 1 
2 2.6122895308918195 5.2611875325719994 0.2570571772461184 0.9999738306442802 0.4948844676831619 1 
3 15.200712516938891 20.900310978212364 0.3441488824864113 0.3421840565845542 0.0255591417216548 1 
4 1.4226173830839919 19.527622068037736 0.3086637385381189 0.7561409220299395 0.07059130416158033 1 
5 3.7253017309377143 22.507101571966118 0.2954098717561283 0.6707951279159825 0.030075512150980588 1 
6 18.587350877818405 18.665694590497935 0.2580229796468509 0.23201756880974567 0.0778798552860091 1 
7 7.506919136265852 20.9922396662155 0.27783791539212643 0.5796759377305507 0.006389075336903194 1 
8 11.148949269039358 20.607341573995768 0.2894529554170772 0.4604872598776234 0.0015637017952830345 1 
9 5.1482403042079214 5.835343489960692 0.27348867743843575 0.9930013679892742 0.41663543222265054 1 
10 9.600165917850338 18.26112799213353 0.27407577371325886 0.5183921568912735 3.3838594015772605E-4 1 
10
Time=2201 Lattice="20.0 0.00000000 0.00000000 0.00000000 25.0 0.00000000 0.00000000 0.00000000 0.000000000000000001" Properties=id:I:1:pos:R:2:radius:R:1:color:R:3
1 5.511889091177887 7.672452637737695 0.2749749553608393 0.9317711618451149 0.24786181606325552 1 
2 2.8091786983230183 5.25829291752307 0.2570571772461184 0.9999136654451088 0.4907087621257559 1 
3 15.13853224719798 20.71337891098444 0.3441488824864113 0.3421840565876707 0.025559141720618184 1 
4 1.5235381853755159 19.358432897672962 0.3086637385381189 0.7561409220301345 0.07059130416169657 1 
5 3.792595864185339 22.321948977232815 0.2954098717561283 0.6707951279171367 0.030075512151400086 1 
6 18.481764461787186 18.499377145666585 0.2580229796468509 0.2320175688133599 0.07787985528371466 1 
7 7.538311853585317 20.797754497098545 0.27783791539212643 0.57967593772863 0.006389075336593164 1 
8 11.133381052129145 20.410955183616082 0.2894529554170772 0.46048725987766953 0.0015637017952793708 1 
9 5.342485305132348 5.802497422071951 0.27348867743843575 0.9930013565322926 0.4166353644683829 1 
10 9.60741251950435 18.06425882118428 0.27407577371325886 0.5183921568900334 3.383859401120404E-4 1 
10
Time=2401 Lattice="20.0 0.00000000 0.00000000 0.00000000 25.0 0.00000000 0.00000000 0.00000000 0.000000000000000001" Properties=id:I:1:pos:R:2:radius:R:1:color:R:3
1 5.68286313139807 7.572610232167474 0.2749749553608393 0.9317712357013587 0.2478619425375817 1 
2 3.0070492379258753 5.259949851721429 0.2570571772461184 0.9999498710060404 0.5070800057234144 1 
3 15.076039810772722 20.525508379453072 0.3441488824864113 0.34218405658296863 0.025559141722182266 1 
4 1.6249656453619439 19.188394338548044 0.3086637385381189 0.7561409220298786 0.07059130416154397 1 
5 3.8602278374980137 22.135866851770132 0.2954098717561283 0.6707951279174265 0.030075512151505446 1 
6 18.375647965050234 18.332224729141522 0.2580229796468509 0.23201756880730495 0.07787985528755859 1 
7 7.569862173316386 20.602292944468893 0.27783791539212643 0.5796759377298311 0.0063890753367870645 1 
8 11.11773467732927 20.213582864928103 0.2894529554170772 0.46048725987980943 0.0015637017951097287 1 
9 5.537705480208699 5.769486412338553 0.27348867743843575 0.993001329585748 0.41663520511220176 1 
10 9.614695501630434 17.866401298199857 0.27407577371325886 0.518392156885962 3.383859399622158E-4 1 
10
Time=2601 Lattice="20.0 0.00000000 0.00000000 0.00000000 25.0 0.00000000 0.00000000 0.00000000 0.000000000000000001" Properties=id:I:1:pos:R:2:radius:R:1:color:R:3
1 5.854409444158436 7.4724337475239 0.2749749553608393 0.9317714088118905 0.24786223897917364 1 
2 3.2055766336502214 5.2609481324845815 0.2570571772461184 0.9999978414987973 0.49853081772964286 1 
3 15.013338206555296 20.337009028399056 0.3441488824864113 0.34218405658364853 0.025559141721956058 1 
4 1.7267325921545869 19.017786645115127 0.3086637385381189 0.75614092203144 0.07059130416247533 1 
5 3.9280861810913 21.949161892744474 0.2954098717561283 0.6707951279144869 0.030075512150437023 1 
6 18.26917628687917 18.164512838488616 0.2580229796468509 0.23201756880698776 0.07787985528775998 1 
7 7.601518094797712 20.40617716448886 0.27783791539212643 0.5796759377296457 0.006389075336757144 1 
8 11.10203593270958 20.01554992338817 0.2894529554170772 0.46048725987836037 0.0015637017952246368 1 
9 5.733579067214042 5.736364809843433 0.27348867743843575 0.9930012661652639 0.4166348300580711 1 
10 9.622002860550198 17.66788152834006 0.27407577371325886 0.5183921568879297 3.3838594003465783E-4 1 
10
Time=2801 Lattice="20.0 0.00000000 0.00000000 0.00000000 25.0 0.00000000 0.00000000 0.00000000 0.000000000000000001" Properties=id:I:1:pos:R:2:radius:R:1:color:R:3
1 6.026339218267638 7.37203358628942 0.2749749553608393 0.9317718141065685 0.24786293302427176 1 
2 3.404542518263677 5.259116609839261 0.2570571772461184 0.9999461446222726 0.4926615752830994 1 
3 14.950496449122923 20.148088335807973 0.3441488824864113 0.3421840565851416 0.025559141721459455 1 
4 1.8287270126294786 18.84679760232153 0.3086637385381189 0.7561409220325777 0.0705913041631539 1 
5 3.9960962044567676 21.7620396030825 0.2954098717561283 0.670795127914562 0.030075512150464334 1 
6 18.162466618818687 17.996426071290944 0.2580229796468509 0.2320175688125043 0.07787985528425778 1 
7 7.633244774901165 20.209623018423233 0.27783791539212643 0.57967593772758 0.0063890753364236885 1 
8 11.086302097607636 19.817074330436558 0.2894529554170772 0.46048725987806477 0.0015637017952480625 1 
9 5.9298904639953385 5.703168931714537 0.27348867743843575 0.9930011170125004 0.4166339480098351 1 
10 9.629326553180366 17.468918018895028 0.27407577371325886 0.5183921568841665 3.38385939896102E-4 1 
10
Time=3001 Lattice="20.0 0.00000000 0.00000000 0.00000000 25.0 0.00000000 0.00000000 0.00000000 0.000000000000000001" Properties=id:I:1:pos:R:2:radius:R:1:color:R:3
1 6.1985259476138745 7.2714839592270835 0.2749749553608393 0.9317727607638726 0.24786455413341107 1 
2 3.6037999422393807 5.257203427261611 0.2570571772461184 0.9999995013880103 0.4992938755484276 1 
3 14.887560781804448 19.958885322644463 0.3441488824864113 0.3421840565876333 0.025559141720630618 1 
4 1.93087385221231 18.67555303577057 0.3086637385381189 0.7561409220295655 0.07059130416135723 1 
5 4.064207861098981 21.574637680354947 0.2954098717561283 0.670795127916484 0.030075512151162886 1 
6 18.05559748524516 17.82808811746003 0.2580229796468509 0.23201756880366992 0.0778798552898663 1 
7 7.665018866933028 20.01277514445224 0.27783791539212643 0.5796759377266689 0.0063890753362766395 1 
8 11.07054475007208 19.61830213819298 0.2894529554170772 0.4604872598796669 0.001563701795121053 1 
9 6.126495197798566 5.669922878205215 0.27348867743843575 0.9930007669089822 0.41663187763206244 1 
10 9.63666119023855 17.26965718102164 0.27407577371325886 0.5183921568817745 3.383859398080613E-4 1 
10
Time=3201 Lattice="20.0 0.00000000 0.00000000 0.00000000 25.0 0.00000000 0.00000000 0.00000000 0.000000000000000001" Properties=id:I:1:pos:R:2:radius:R:1:color:R:3
1 6.370884874899967 7.1708351430967765 0.2749749553608393 0.931774964306314 0.24786832765738992 1 
2 3.803248683466489 5.258852187343677 0.2570571772461184 0.9999956373515766 0.5020886908317533 1 
3 14.824562190014909 19.769493140123323 0.3441488824864113 0.34218405658879303 0.025559141720244816 1 
4 2.033122820464169 18.504137255113186 0.3086637385381189 0.756140922030266 0.070591304161775 1 
5 4.132387617280909 21.387048389042434 0.2954098717561283 0.6707951279188765 0.03007551215203247 1 
6 17.948621501548104 17.659581855623014 0.2580229796468509 0.23201756880713698 0.07787985528766522 1 
7 7.696824727404731 19.815730457622003 0.27783791539212643 0.5796759377254733 0.006389075336083683 1 
8 11.054771647992148 19.419331209117367 0.2894529554170772 0.4604872598811101 0.0015637017950066445 1 
9 6.323296453539263 5.636642249325801 0.27348867743843575 0.9929999475218458 0.41662703229788883 1 
10 9.644003160628085 17.07019711775416 0.27407577371325886 0.5183921568790768 3.3838593970875186E-4 1 
10
Time=3401 Lattice="20.0 0.00000000 0.00000000 0.00000000 25.0 0.00000000 0.00000000 0.00000000 0.000000000000000001" Properties=id:I:1:pos:R:2:radius:R:1:color:R:3
1 6.543359206276338 7.070122113322935 0.2749749553608393 0.9317800705565443 0.24787707230363676 1 
2 4.002823008276147 5.2580674343274225 0.2570571772461184 0.9999695837599777 0.4944849918518035 1 
3 14.761521435581143 19.57997420437227 0.3441488824864113 0.342184056587467 0.025559141720685963 1 
4 2.135440220195478 18.33260675216727 0.3086637385381189 0.7561409220268619 0.07059130415974452 1 
5 4.200613003670238 21.199333551107582 0.2954098717561283 0.6707951279175977 0.030075512151567674 1 
6 17.841573922752797 17.49096281873184 0.2580229796468509 0.23201756880571606 0.07787985528856733 1 
7 7.728651874370331 19.618553896019403 0.27783791539212643 0.5796759377256917 0.006389075336118932 1 
8 11.038987989554196 19.220227116104116 0.2894529554170772 0.46048725988415573 0.001563701794765171 1 
9 6.52022935600011 5.603336218908166 0.27348867743843575 0.9929980372351548 0.4166157372024851 1 
10 9.651350044729545 16.87060356319224 0.27407577371325886 0.5183921568842904 3.383859399006539E-4 1 
10
Time=3601 Lattice="20.0 0.00000000 0.00000000 0.00000000 25.0 0.00000000 0.00000000 0.00000000 0.000000000000000001" Properties=id:I:1:pos:R:2:radius:R:1:color:R:3
1 6.7159108269696075 6.969371293233782 0.2749749553608393 0.9317918370758403 0.24789722446059637 1 
2 4.2024777934377875 5.2574912536937255 0.2570571772461184 0.9999989705370806 0.4989853760008774 1 
3 14.698452429999742 19.390370337409568 0.3441488824864113 0.3421840565911792 0.025559141719451117 1 
4 2.237803472550314 18.160999379367855 0.3086637385381189 0.7561409220285247 0.07059130416073633 1 
5 4.268868964654023 21.01153459045442 0.2954098717561283 0.6707951279193476 0.030075512152203665 1 
6 17.734478371548533 17.322268216731608 0.2580229796468509 0.23201756881060875 0.07787985528546121 1 
7 7.760493284386097 19.421288971512258 0.27783791539212643 0.5796759377263704 0.006389075336228456 1 
8 11.023197257812685 19.0210337963808 0.2894529554170772 0.4604872598828757 0.001563701794866701 1 
9 6.717250480391176 5.5700079673317235 0.27348867743843575 0.9929936051635024 0.41658953741950233 1 
10 9.65870022127113 16.670920562571233 0.27407577371325886 0.5183921568827332 3.383859398433664E-4 1 
10
Time=3801 Lattice="20.0 0.00000000 0.00000000 0.00000000 25.0 0.00000000 0.00000000 0.00000000 0.000000000000000001" Properties=id:I:1:pos:R:2:radius:R:1:color:R:3
1 6.888513918835814 6.868607277088899 0.2749749553608393 0.9318187633881079 0.24794334845919014 1 
2 4.40218227461878 5.25822507787061 0.2570571772461184 0.9999965087657201 0.5018684812257956 1 
3 14.63536449469237 19.200709562153072 0.3441488824864113 0.342184056596702 0.02555914171761403 1 
4 2.3401974485296044 17.989340499798985 0.3086637385381189 0.7561409220277021 0.07059130416024567 1 
5 4.337145412194113 20.823679263237732 0.2954098717561283 0.6707951279214049 0.0300755121529514 1 
6 17.627350676354567 17.153522982211026 0.2580229796468509 0.23201756880796554 0.0778798552871392 1 
7 7.792344251382099 19.223964839297338 0.27783791539212643 0.579675937727258 0.00638907533637173 1 
8 11.007401786591158 18.82178069015669 0.2894529554170772 0.46048725988290734 0.0015637017948641474 1 
9 6.914330972960816 5.536652790921925 0.27348867743843575 0.9929833828554615 0.41652914144214476 1 
10 9.666052603916029 16.471177628471093 0.27407577371325886 0.5183921568803136 3.38385939754271E-4 1 
10
Time=4001 Lattice="20.0 0.00000000 0.00000000 0.00000000 25.0 0.00000000 0.00000000 0.00000000 0.000000000000000001" Properties=id:I:1:pos:R:2:radius:R:1:color:R:3
1 7.0611501836616215 6.767862295865108 0.2749749553608393 0.9318798453731997 0.2480480221144888 1 
2 4.601915852050519 5.2572163455878815 0.2570571772461184 0.9999593375642354 0.49362341922885355 1 
3 14.572263875491254 19.011010655405652 0.3441488824864113 0.3421840565911327 0.025559141719466605 1 
4 2.442612010922655 17.817647108035207 0.3086637385381189 0.7561409220251601 0.07059130415872938 1 
5 4.405435586784588 20.635786167512588 0.2954098717561283 0.6707951279185769 0.030075512151923556 1 
6 17.52020144302655 16.98474382128826 0.2580229796468509 0.232017568803358 0.0778798552900643 1 
7 7.8242016220480455 19.02660103486371 0.27783791539212643 0.5796759377276913 0.006389075336441674 1 
8 10.991603139672478 18.622487523891195 0.2894529554170772 0.46048725987597466 0.0015637017954137633 1 
9 7.1114524121386316 5.503251925444863 0.27348867743843575 0.9929599749092295 0.4163910104265585 1 
10 9.67340646476606 16.271394535849 0.27407577371325886 0.5183921568852246 3.383859399350708E-4 1 
10
Time=4201 Lattice="20.0 0.00000000 0.00000000 0.00000000 25.0 0.00000000 0.00000000 0.00000000 0.000000000000000001" Properties=id:I:1:pos:R:2:radius:R:1:color:R:3
1 7.233804185410203 6.667193558069048 0.2749749553608393 0.9320168388138066 0.2482829942548071 1 
2 4.801657635821309 5.261226565902126 0.2570571772461184 0.9999745725017344 0.5050425045074748 1 
3 14.50915475742567 18.821286198591025 0.3441488824864113 0.342184056587968 0.025559141720519263 1 
4 2.5450403672751545 17.645930591319193 0.3086637385381189 0.7561409220233818 0.07059130415766862 1 
5 4.473734959206665 20.447867764936206 0.2954098717561283 0.6707951279166976 0.030075512151240547 1 
6 17.41303777803432 16.81594192792395 0.2580229796468509 0.23201756880372337 0.07787985528983238 1 
7 7.856063283502853 18.829210647997748 0.27783791539212643 0.5796759377298863 0.006389075336796002 1 
8 10.975802364872798 18.4231675153322 0.2894529554170772 0.46048725987574424 0.0015637017954320265 1 
9 7.30860542296985 5.469757539896601 0.27348867743843575 0.9929068493756155 0.41607838276936987 1 
10 9.680761316090145 16.071584534944215 0.27407577371325886 0.5183921568851431 3.383859399320732E-4 1 
10
Time=4401 Lattice="20.0 0.00000000 0.00000000 0.00000000 25.0 0.00000000 0.00000000 0.00000000 0.000000000000000001" Properties=id:I:1:pos:R:2:radius:R:1:color:R:3
1 7.406456192572276 6.566718611732243 0.2749749553608393 0.9323192669673832 0.24880276393084172 1 
2 5.001403762532379 5.261115088637883 0.2570571772461184 0.9999755056786694 0.49505088681087994 1 
3 14.446039944681354 18.631544621911193 0.3441488824864113 0.3421840565871733 0.025559141720783607 1 
4 2.6474779662930046 17.474198579689272 0.3086637385381189 0.7561409220213839 0.07059130415647696 1 
5 4.542040494650363 20.259932405464752 0.2954098717561283 0.6707951279137379 0.03007551215016474 1 
6 17.305864443082886 16.647124802651913 0.2580229796468509 0.2320175687999526 0.07787985529222624 1 
7 7.887927820009091 18.631802449528262 0.27783791539212643 0.5796759377310345 0.006389075336981298 1 
8 10.960000164285125 18.223829521048728 0.2894529554170772 0.46048725988142397 0.0015637017949817755 1 
9 7.505792623709942 5.436059270344492 0.27348867743843575 0.99278765516591 0.41538128507189376 1 
10 9.688116831082452 15.871756504103251 0.27407577371325886 0.5183921568860054 3.383859399638256E-4 1 
10
Time=4601 Lattice="20.0 0.00000000 0.00000000 0.00000000 25.0 0.00000000 0.00000000 0.00000000 0.000000000000000001" Properties=id:I:1:pos:R:2:radius:R:1:color:R:3
1 7.579066785918009 6.466687914461848 0.2749749553608393 0.9329712569997761 0.24992822907806295 1 
2 5.201146838617506 5.257656839848718 0.2570571772461184 0.999858163410901 0.48809132788758564 1 
3 14.382921316209108 18.441791574037218 0.3441488824864113 0.3421840565889853 0.025559141720180867 1 
4 2.749921758373874 17.302456185668103 0.3086637385381189 0.756140922021997 0.07059130415684267 1 
5 4.610350159637069 20.07198568399829 0.2954098717561283 0.6707951279155402 0.030075512150819883 1 
6 17.198684628759743 16.4782974712166 0.2580229796468509 0.2320175687967304 0.07787985529427188 1 
7 7.919794282948569 18.434382316365326 0.27783791539212643 0.5796759377333165 0.00638907533734967 1 
8 10.944197008346892 18.02447947540258 0.2894529554170772 0.4604872598862299 0.001563701794600747 1 
9 7.7030408267845205 5.401913756358524 0.27348867743843575 0.9925244455889102 0.4138624907642629 1 
10 9.695472790768456 15.671916392271935 0.27407577371325886 0.5183921568922425 3.383859401933642E-4 1 
10
Time=4801 Lattice="20.0 0.00000000 0.00000000 0.00000000 25.0 0.00000000 0.00000000 0.00000000 0.000000000000000001" Properties=id:I:1:pos:R:2:radius:R:1:color:R:3
1 7.751540794452621 6.367624824957879 0.2749749553608393 0.9343235445734326 0.25228431896795583 1 
2 5.400870127183961 5.259227967691737 0.2570571772461184 0.9999993491260053 0.500806767358674 1 
3 14.319800131002125 18.252030839868038 0.3441488824864113 0.34218405658933854 0.025559141720063405 1 
4 2.8523697001267854 17.130706834911095 0.3086637385381189 0.7561409220258346 0.07059130415913173 1 
5 4.678662591631257 19.884031349407966 0.2954098717561283 0.670795127913147 0.030075512149950023 1 
6 17.09150047292114 16.309463301122783 0.2580229796468509 0.2320175687924121 0.0778798552970133 1 
7 7.951662036696549 18.23695418634107 0.27783791539212643 0.5796759377313287 0.006389075337028816 1 
8 10.928393212274178 17.825121354722945 0.2894529554170772 0.46048725988833 0.001563701794434269 1 
9 7.900434144573909 5.36680814098693 0.27348867743843575 0.9919574344222504 0.4106810058460285 1 
10 9.702829048421133 15.472068185553008 0.27407577371325886 0.5183921568890846 3.3838594007712386E-4 1 
10
Time=5001 Lattice="20.0 0.00000000 0.00000000 0.00000000 25.0 0.00000000 0.00000000 0.00000000 0.000000000000000001" Properties=id:I:1:pos:R:2:radius:R:1:color:R:3
1 7.92364881253353 6.270554844170495 0.2749749553608393 0.9369464363080466 0.25694072369543647 1 
2 5.600582491033421 5.257513958880057 0.2570571772461184 0.9999230562865742 0.491228580896417 1 
3 14.25667723265063 18.06226495548759 0.3441488824864113 0.3421840565886625 0.025559141720288225 1 
4 2.9548204223737633 16.958952822785374 0.3086637385381189 0.7561409220281896 0.07059130416053644 1 
5 4.74697687766249 19.69607191363098 0.2954098717561283 0.6707951279173776 0.030075512151487682 1 