100
Time=1 Lattice="20.0 0.00000000 0.00000000 0.00000000 25.0 0.00000000 0.00000000 0.00000000 0.000000000000000001" Properties=id:I:1:pos:R:2:radius:R:1:color:R:3
1 10.521381421445511 9.482985884799668 0.2674746006191499 0.44107942633323005 0.0034837706592273365 1 
2 6.9928155376632475 7.234073914537275 0.2628844290288665 0.9023970604787808 0.2032229696926724 1 
3 18.632129796079422 14.480613958942316 0.3168170908252596 0.1627563198111599 0.1308568026189737 1 
4 3.860175335572497 11.373924860159491 0.28227740817346114 0.8497529628744503 0.1426866012020493 1 
5 10.727658847497187 14.417818299390792 0.2711335853983807 0.45625555500065673 0.0019172523247774076 1 
6 8.070059005415848 19.868696956620497 0.28924542723038366 0.41615625093759445 0.007079899229945785 1 
7 4.8822848488407935 10.09920719437516 0.2886170767355725 0.7625814218163794 0.07449912230773414 1 
8 10.087510125544785 21.148405237841025 0.3405276832485085 0.8708440642448946 0.1646275503051443 1 
9 14.659885289197263 11.129171858998234 0.29613078291361505 0.1933527846224996 0.10507281012669578 1 
10 0.3499947024518789 10.112065793990663 0.27290196877503803 0.9428417766165991 0.2678553018416011 1 
11 2.15750012666342 12.619834229762793 0.2729441039364341 0.8607712531122428 0.15381492965781723 1 
12 17.328823126899525 9.422228458267076 0.33192955789172307 0.0703730869148998 0.24422526404476974 1 
13 11.343205716166013 21.242613011177987 0.26424870265981476 0.45634484653191665 0.0019094183025761269 1 
14 12.864808097812295 5.508823080362454 0.2741773706593128 0.015749876338491176 0.37549370403946075 1 
15 15.866750246800944 7.147695397805167 0.2960051505094661 0.029554957311424934 0.33064397911575505 1 
16 17.48838265902277 24.20230011353871 0.274715044503634 0.3162458376663732 0.03498988416909987 1 
17 5.667706810550056 10.184874879935686 0.28178708660235796 0.890706507758523 0.1879929090627278 1 
18 5.36724981427974 6.649346847577254 0.31740330192838184 0.9719577551785443 0.33490645885792764 1 
19 13.851700499533363 16.837176728192706 0.2527993177760584 0.34169529076995886 0.02572200237034805 1 
20 9.592804488747134 20.54334896285488 0.30308010384952394 0.3661479099881638 0.018249423457051495 1 
21 12.424719645286014 23.261209701129868 0.3198711357366868 0.4315434401090858 0.00470847028451854 1 
22 5.091955172178586 18.97116759001712 0.2810914207664392 0.3212196599069582 0.9669449539252097 1 
23 14.172100323906099 6.505828032708796 0.33325168050729387 1.552902995582972E-6 0.49875384568207487 1 
24 16.706643439033552 15.508773389851513 0.28264547825686637 0.22818306855834647 0.08033876068709489 1 
25 0.22641746150211395 14.145325060589574 0.3363079882297943 0.9998553873459446 0.48797536939296354 1 
26 11.047647730991248 16.244030678165824 0.3141968480966028 0.4481269824652889 0.0026980896358394513 1 
27 2.59279852421516 14.061717100834276 0.2831586289567837 0.8188502697325833 0.11485781133267309 1 
28 18.030993242836182 5.240010879365515 0.2985563086407983 0.4659581514863006 0.9988398065008148 1 
29 2.089214160234703 18.390841848361134 0.27983921956021873 0.7560166382733888 0.07051719367686815 1 
30 18.229236573345343 18.23814650471574 0.33780275454378905 0.9827916799251413 0.3699531092449344 1 
31 3.6073482261692953 13.112304366647518 0.31232569670425075 0.812415591638687 0.10962005929985447 1 
32 13.000888498956803 10.720909291683183 0.31153612390764096 0.263034287764352 0.05971912234954824 1 
33 2.3374531900691853 15.31775452981244 0.29273482761714287 0.8006862500323326 0.10051560851330682 1 
34 12.043168316438845 7.064021608227917 0.32680914093680175 0.13992142607964725 0.1530945076775448 1 
35 5.307741442413645 18.39495410797033 0.3139390063825398 0.6736842882336838 0.031135661389396496 1 
36 7.278937925032904 15.718707364747978 0.2515271029213794 0.6840967092706356 0.03512539149172378 1 
37 3.2308783956218394 8.52728005367907 0.28089675567794864 0.9447763113976558 0.27158364152387093 1 
38 6.6776573587402925 19.05932390057982 0.304587875268022 0.7786789358544239 0.08486381666849874 1 
39 1.8447195130066298 22.87719213384548 0.33899660740369886 0.7081068551638572 0.04536659071972132 1 
40 18.5691323376198 20.42951651798294 0.3459900501911033 0.2551155908938946 0.0640738294426984 1 
41 0.7629240216332945 16.949934719673948 0.25198772303502615 0.8072334138660531 0.10552867099849883 1 
42 13.554691458888543 5.95633591976401 0.3250699384992716 0.03562953476135222 0.3146353026759362 1 
43 0.7089677183805079 20.41882211777809 0.2775362047770186 0.7600693181142765 0.07295907716522615 1 
44 18.530488545922104 12.168981735587602 0.26050377967838323 0.11539839001096397 0.18049788483667056 1 
45 3.9014678406753407 22.415487483277598 0.3315737651903006 0.6766587014897324 0.03224824619467043 1 
46 1.7980820536936366 19.393523708596632 0.26135968442506696 0.7506110628281679 0.06734067074875633 1 
47 19.021486671633987 17.40744418788959 0.3344308207827609 0.09175222835045027 0.21132413169234754 1 
48 6.2215556183722525 16.261851110498323 0.26299513287655396 0.997092735822949 0.553840616564596 1 
49 5.002460424518262 13.641556237164632 0.2548665402681748 0.7540265587093213 0.06933713014667764 1 
50 10.151520744517004 6.977590684026037 0.26772493316502277 0.4371053331082311 0.003971512031240854 1 
51 11.815762565939567 15.397591936852324 0.25168421184250617 0.4106418463602151 0.00804967692043479 1 
52 5.771246135358009 23.385915983969017 0.30974720415276824 0.5383580139210165 0.0014735084591440684 1 
53 0.7909422098761448 24.632476086348053 0.2973741073021869 0.8109406880596386 0.10844427151553704 1 
54 19.80988180374268 7.624502869693247 0.33269048248356164 1.2189603123768933E-5 0.4965086600656261 1 
55 19.04178835812779 24.47981577560683 0.32144291351413884 0.2868526611176916 0.047707824600745075 1 
56 17.590558630641837 13.601798179803103 0.2912747332760206 0.16674229903035576 0.12725436991907313 1 
57 11.867187475764286 10.839811861847297 0.2516165759915983 0.3390169378327753 0.02662440526019566 1 
58 6.94357501819974 5.518983207420623 0.2949666754493667 0.9933720844737066 0.4188582335534304 1 
59 2.5571664054552405 10.168005254651824 0.2543520288393285 0.9124859830255884 0.2174131747455058 1 
60 19.79103947826796 17.33428478625968 0.2692221236056802 7.379869874546974E-4 0.47284410998216003 1 
61 8.76764771686293 19.530553136573932 0.27903561738974525 0.6564093632015642 0.025093576477553614 1 
62 17.072533766276987 5.938135399361601 0.25107346156668486 0.2541664472482865 0.935391621808999 1 
63 7.472715225474064 24.73199483491315 0.31641695463632225 0.5059845685575179 3.5816343630090675E-5 1 
64 7.116521572404366 20.575185886162817 0.281630807388373 0.5934304823446905 0.008806815021993097 1 
65 4.382054277054482 5.50752762516682 0.26632455664546645 0.9980399317290802 0.4557707517213654 1 
66 7.506022704856991 22.78261212685482 0.3437743173757185 0.5728910333411601 0.005341635814719192 1 
67 4.36395478463675 7.285652149372804 0.3241934562742738 0.9646284506001956 0.31528291120510377 1 
68 10.781951606076385 12.45906831364625 0.2932392389777581 0.4079336513202476 0.00854930314346053 1 
69 8.026151212812884 14.194131803008156 0.2936283741513605 0.6105277695585234 0.012369389643740736 1 
70 1.3640670792920888 9.467333591879289 0.28381337116366867 0.945158874209557 0.2723301146122311 1 
71 7.204540194535357 23.848357332721896 0.29291363046978425 0.5719242216249946 0.005200135061014133 1 
72 11.54537879465003 8.770235069167134 0.31992008481762035 0.3005758812846463 0.04149152584210125 1 
73 2.735135183634539 21.264603616033643 0.2784105916213809 0.6950845668171425 0.03962839815018143 1 
74 0.7836271389287668 18.122084023014715 0.3239528411009511 0.7898477392372527 0.09258339741849803 1 
75 6.130258427524957 19.4651756702173 0.2650654539408742 0.0756414936713215 0.23557636621040673 1 
76 18.98911455733873 23.347911024173158 0.26192563827822946 0.2788424000115297 0.051570166060129596 1 
77 16.63162762162387 5.44675565905568 0.29325674005731966 0.04946455347452505 0.2831640910179062 1 
78 5.448030226021038 16.152365464931304 0.27393696090877134 0.580686378778506 0.0065532366307268775 1 
79 6.784264281750474 14.365045062289614 0.3079787735359232 0.666291893394948 0.028463144397891993 1 
80 18.21614735788974 15.609588037647821 0.33930391227307943 0.19008538339575876 0.10763163938073939 1 
81 5.87634720489529 16.94007831295038 0.2684816797121078 0.6706600287469672 0.030026432032519146 1 
82 7.613044300061218 8.307847377162249 0.31776235688978016 0.8010182720127108 0.10076573304076003 1 
83 9.849465735644639 8.859800907695963 0.25813075817578135 0.5203312766448633 4.135318185749526E-4 1 
84 14.83706652622287 15.526201791572985 0.3346642097945456 0.28771057273843303 0.047304518386856564 1 
85 9.82671289625315 17.82490209789011 0.28113076306056567 0.510621687147219 1.1283296913233709E-4 1 
86 7.237132739267943 11.17042221508074 0.27051379886755483 0.7103900148542859 0.046418649358669795 1 
87 6.240059671524211 24.085888837009804 0.30716895692256746 0.6856776186619288 0.035754567143590155 1 
88 1.3532820089351418 8.08391177157161 0.3134124179263869 0.9715087511160594 0.33362843505883 1 
89 0.8525824253401159 23.850323076867404 0.3008124381848298 0.670435061986772 0.029944801490755568 1 
90 17.63728297595153 18.349910707093546 0.291028133884337 0.0029704080750421746 0.5544204442366091 1 
91 4.09743818332442 15.530464438377066 0.2700603337697573 0.7475704240114156 0.06559364052213978 1 
92 6.441047615228067 15.627858724985174 0.309642699779436 0.6378655095695123 0.01938258326280068 1 
93 11.537893803849801 12.959003915105185 0.3097726083698146 0.43425914140327454 0.004340702184489065 1 
94 14.895638801946195 20.14356871255989 0.3487781475893431 0.3433822128139842 0.025162271152601168 1 
95 6.330694444698484 7.785994124113723 0.3493097145844919 0.9058047594912827 0.2078998507802124 1 
96 17.55460423909425 19.32695147518955 0.3370635921781032 0.2508891972689089 0.06647513570422353 1 
97 13.210569598816285 24.870038344855335 0.3397186348035384 0.49846461942935466 2.357399054020437E-6 1 
98 2.829961509315701 22.219562453914456 0.328621950001583 0.6986837266985714 0.04117020939659183 1 
99 14.24746137315009 7.6548333443199965 0.31085130986990317 0.07173172491381524 0.2419568164924638 1 
100 11.232337512798466 18.95229299496168 0.30865299917852057 0.4524976405404663 0.002261588938750614 1 
100
Time=201 Lattice="20.0 0.00000000 0.00000000 0.00000000 25.0 0.00000000 0.00000000 0.00000000 0.000000000000000001" Properties=id:I:1:pos:R:2:radius:R:1:color:R:3
1 10.50910385863485 9.379360797503379 0.2674746006191499 0.4412636586264795 0.003461942846217203 1 
2 7.093565305012089 7.1598894618767615 0.2628844290288665 0.9028421429721436 0.2038274019332461 1 
3 18.559800411372443 14.401434669666484 0.3168170908252596 0.1627961819513586 0.13082038911470373 1 
4 3.93506062211267 11.297420825841145 0.28227740817346114 0.8497530124723123 0.14268664975047102 1 
5 10.718292491034088 14.311171534299806 0.2711335853983807 0.45625522920656086 0.0019172809379656153 1 
6 8.05813242503881 19.77541632967684 0.28924542723038366 0.4538774840204013 0.0021318311844875093 1 
7 4.933177687442616 10.02164355713819 0.2886170767355725 0.7843176854634403 0.08870514988306477 1 
8 10.125442878152077 21.08837845471291 0.3405276832485085 0.6913985589137424 0.03808378287210712 1 
9 14.594229212741816 11.044614191128737 0.29613078291361505 0.19335283984297896 0.10507276724992198 1 
10 0.4446875625147851 10.062426236083585 0.27290196877503803 0.9428415585191596 0.26785488579700467 1 
11 2.2347447766871467 12.545712421855564 0.2729441039364341 0.8607702750140369 0.15381391035124453 1 
12 17.23683559576652 9.36746446244101 0.33192955789172307 0.07037308680497106 0.24422526422941798 1 
13 11.333879447518939 21.135987097707016 0.26424870265981476 0.4565270855447717 0.0018934795560608397 1 
14 12.73627083446405 5.475971422612311 0.2741773706593128 0.015334914796387655 0.37711893886942877 1 
15 15.766023633620406 7.111434714200447 0.2960051505094661 0.029554960126195184 0.3306439712967554 1 
16 17.449038585278956 24.102735671857864 0.274715044503634 0.31624562842588455 0.03498996685297007 1 
17 5.762918796356617 10.10622525959808 0.28178708660235796 0.8805974454994574 0.17573840116460354 1 
18 5.468739531235692 6.6138450513333495 0.31740330192838184 0.9719573105000403 0.33490518764792 1 
19 13.817805980274107 16.735629423506495 0.2527993177760584 0.34169514064658923 0.02572205247861581 1 
20 9.557967607890296 20.389367635172942 0.30308010384952394 0.40970369138002005 0.008221008328329116 1 
21 12.409089477565601 23.15446737597791 0.3198711357366868 0.412103636258949 0.007786398764620839 1 
22 5.068018023937931 19.029965159119524 0.2810914207664392 0.50277786848102 7.716612843933213E-6 1 
23 14.106205840937655 6.500445923097466 0.33325168050729387 0.004680090390248581 0.4317490868618763 1 
24 16.648442445379903 15.418916363020564 0.28264547825686637 0.22818242535793903 0.08033917729229523 1 
25 0.96569410079195 14.089717445752898 0.3363079882297943 0.993197933735448 0.41780633747614887 1 
26 11.036561503012477 16.137774911744923 0.3141968480966028 0.44810029277347074 0.0027008743323586604 1 
27 2.661089872229621 13.979227378285865 0.2831586289567837 0.8188505302805902 0.11485802703446296 1 
28 17.947257136732812 5.593039655665914 0.2985563086407983 0.25019047171883246 0.9331226149486316 1 
29 2.1444502727524144 18.298183718135576 0.27983921956021873 0.7560319248515671 0.07052630644380387 1 
30 18.44323513962459 18.100147061241525 0.33780275454378905 0.7885479048485285 0.09166177425138788 1 
31 3.67425282488038 13.028703414471828 0.31232569670425075 0.8124151710714228 0.10961972272614284 1 
32 12.950223605375458 10.626750337500381 0.31153612390764096 0.26313157554386335 0.05966677448133956 1 
33 2.4017973491052684 15.232268557485378 0.29273482761714287 0.8006867548105778 0.1005159884532506 1 
34 11.96607172863103 6.989745546083046 0.32680914093680175 0.1399212602768818 0.1530946797764397 1 
35 5.403578142899576 18.134449651856002 0.3139390063825398 0.671742106748821 0.030420774768009362 1 
36 7.319420735150478 15.61687962178115 0.2515271029213794 0.6846279906682764 0.035336137555549874 1 
37 3.3261091035512873 8.4783740065516 0.28089675567794864 0.9447763137471016 0.27158364609875263 1 
38 6.765602228386816 18.90875231865306 0.304587875268022 0.7293597067390846 0.05570941386907474 1 
39 1.889041332424227 22.78036029597906 0.33899660740369886 0.7080860999630745 0.04535709067207766 1 
40 18.516708181564805 20.336194594858643 0.3459900501911033 0.25511598329887086 0.06407360900684034 1 
41 0.8288294543870123 16.865314678990618 0.25198772303502615 0.8072288975719681 0.10552515353103553 1 
42 13.439021153958988 5.9129279411684506 0.3250699384992716 0.028730830974383004 0.3329509942385037 1 
43 0.7646497937934 20.32739062738998 0.2775362047770186 0.7600693101684447 0.07295907232618876 1 
44 18.448141379380303 12.10057303134658 0.26050377967838323 0.11539843847491582 0.18049782649805513 1 
45 3.939434185788008 22.315006004961262 0.3315737651903006 0.67679909293558 0.03230129277797217 1 
46 1.8513376829337658 19.301580210765067 0.26135968442506696 0.7506025548857167 0.0673357427695796 1 
47 18.797571535322263 17.333826531790482 0.3344308207827609 0.024580824975710402 0.34515618185014973 1 
48 6.259371601437456 16.22559660804987 0.26299513287655396 0.8009134998540464 0.10068675753790879 1 
49 5.056850616077687 13.549346324834064 0.2548665402681748 0.7540277191126838 0.06933781461288319 1 
50 10.138054341958258 6.871385872923088 0.26772493316502277 0.4371052694577775 0.003971520101898551 1 
51 11.796597314643954 15.292063250981677 0.25168421184250617 0.41067006624338054 0.0080445518799106 1 
52 5.782446367850729 23.261744780439116 0.30974720415276824 0.5509480495800021 0.0026024766406715916 1 
53 0.8338985878873502 24.57236755778516 0.2973741073021869 0.7759332162024885 0.08303374213714754 1 
54 18.848465991470338 7.603457912756645 0.33269048248356164 6.04709512311008E-4 0.4754165942408961 1 
55 18.99633421047424 24.383362651925147 0.32144291351413884 0.2868556311522655 0.04770642495332644 1 
56 17.51918121224243 13.521963198667324 0.2912747332760206 0.16674231893432578 0.12725435212369096 1 
57 11.832683628741417 10.7383893331661 0.2516165759915983 0.3389068240913974 0.02666186644674401 1 
58 7.049211099604577 5.501609878921867 0.2949666754493667 0.9933720275326479 0.4188578873313977 1 
59 2.6454881100222423 10.10749794656306 0.2543520288393285 0.9124874456582581 0.217415309731179 1 
60 19.521287066134754 17.252431365152212 0.2692221236056802 0.23818472731475615 0.07402727436049217 1 
61 8.80395443156615 19.410973788291454 0.27903561738974525 0.6351752220518971 0.01861900812015821 1 
62 17.01646149164545 5.98037308365147 0.25107346156668486 0.03674355029809845 0.6881315013749414 1 
63 7.495077732858667 24.37266363747163 0.31641695463632225 0.5859030070764056 0.007434599900448757 1 
64 7.13648354376093 20.470177102043404 0.281630807388373 0.5933190665886416 0.008785635581547102 1 
65 4.488687102970114 5.498057731664966 0.26632455664546645 0.9980397658326425 0.45576888369748614 1 
66 7.521822305449489 22.675441666550768 0.3437743173757185 0.5729844226380953 0.005355406324718981 1 
67 4.462996763250041 7.246276486743502 0.3241934562742738 0.9646262751498338 0.3152774392761109 1 
68 10.76126773591786 12.34734993969862 0.2932392389777581 0.4100139185144466 0.008164148176573738 1 
69 8.049829583638685 14.089680064647492 0.2936283741513605 0.6105557108270552 0.012375723734426303 1 
70 1.4594894076446967 9.418531743638683 0.28381337116366867 0.9451607670524058 0.2723338156921111 1 
71 7.212359080964695 23.711769022897663 0.29291363046978425 0.4966444156698172 1.1260072986185587E-5 1 
72 11.502677136960537 8.672038567476022 0.31992008481762035 0.3006426692441797 0.04146248280657072 1 
73 2.7787703119196148 21.161775663684917 0.2784105916213809 0.6955525145979858 0.03982697380832445 1 
74 0.8455536674162989 18.03503834271084 0.3239528411009511 0.7898461634154745 0.09258227633873112 1 
75 6.096218881369562 19.408617514870766 0.2650654539408742 0.3763123588830597 0.01554012814792699 1 
76 18.941574803448454 23.251517883466768 0.26192563827822946 0.2788395313519284 0.051571580843313036 1 
77 16.474375069437635 5.383766477930461 0.29325674005731966 0.026104946207075763 0.3405525855004182 1 
78 5.466974952538041 16.046291067045487 0.27393696090877134 0.5954504430275445 0.009195341377197686 1 
79 6.8198814058146695 14.264035433973866 0.3079787735359232 0.666249798363937 0.02844830130308057 1 
80 18.149947720089802 15.525784400976018 0.33930391227307943 0.1900450074712473 0.10766353393228811 1 
81 5.901343876276556 16.86864172241151 0.2684816797121078 0.6599209825139645 0.02626454708163517 1 
82 7.677481982805403 8.222399812821843 0.31776235688978016 0.8010885496044685 0.10081873127978874 1 
83 9.853878249446542 8.75062386020467 0.25813075817578135 0.520046798901256 4.020357789549789E-4 1 
84 14.791613006477043 15.429274633406507 0.3346642097945456 0.28771071057507364 0.04730445374903475 1 
85 9.82898710819843 17.717871055455685 0.28113076306056567 0.5106216701712902 1.1283260842520626E-4 1 
86 7.28217940307096 11.073305800413303 0.27051379886755483 0.71039006428311 0.04641867228583052 1 
87 6.271321272273909 24.001724817145124 0.30716895692256746 0.6639772809707432 0.027653250963403042 1 
88 1.4542442582629242 8.048286602679012 0.3134124179263869 0.9715066110758724 0.3336223701582872 1 
89 0.9026083127725528 23.717613201564465 0.3008124381848298 0.6815892246634303 0.03414019975304344 1 
90 17.30944035952258 18.302468377085827 0.291028133884337 0.03326854954087455 0.3206630178900043 1 
91 4.150445144540272 15.437453661398507 0.2700603337697573 0.7475677243412422 0.06559210197730209 1 
92 6.492624957813368 15.437845666788487 0.309642699779436 0.6258484242184175 0.01609693726765765 1 
93 11.52445231923843 12.85954727875406 0.3097726083698146 0.4318235294075648 0.004669838534378357 1 
94 14.86210532641143 20.04190108181237 0.3487781475893431 0.3433822127510883 0.02516227117334635 1 
95 6.402837556745154 7.733916120046962 0.3493097145844919 0.905051916462002 0.2068567841984752 1 
96 17.504163017399698 19.239226038128482 0.3370635921781032 0.2516062732217948 0.06606387970435745 1 
97 13.198459561324086 23.49703794509017 0.3397186348035384 0.4921968559139095 6.0892765557207795E-5 1 
98 2.870630412866688 22.125470698981218 0.328621950001583 0.6980636428648652 0.040902196285912185 1 
99 14.156154816628945 7.599926954112388 0.31085130986990317 0.07125122069493656 0.24275598307362328 1 
100 11.22216677972262 18.845722175750705 0.30865299917852057 0.45249765674263565 0.0022615873924742846 1 
100
Time=401 Lattice="20.0 0.00000000 0.00000000 0.00000000 25.0 0.00000000 0.00000000 0.00000000 0.000000000000000001" Properties=id:I:1:pos:R:2:radius:R:1:color:R:3
1 10.478414088637301 9.118946560312606 0.2674746006191499 0.4416628593111411 0.0034148834124724803 1 
2 7.33922557734741 6.979788010904941 0.2628844290288665 0.9035505937081055 0.20479343110656306 1 
3 18.377601000890177 14.20189149368821 0.3168170908252596 0.16292396115162666 0.1307037178168593 1 
4 4.123717273730709 11.10468621951178 0.28227740817346114 0.8497531889882153 0.1426868225315867 1 
5 10.694695656700409 14.042498517767921 0.2711335853983807 0.4562541811734026 0.0019173729839691567 1 
6 8.049143844697308 19.530413085846764 0.28924542723038366 0.5017797637425608 3.1675690128074585E-6 1 
7 5.078884299582891 9.828619635303033 0.2886170767355725 0.8136270817017 0.11059268930427713 1 
8 10.174146217504115 20.88252863295524 0.3405276832485085 0.5732313895382851 0.005391909097422931 1 
9 14.428823532245577 10.831590081294866 0.29613078291361505 0.19335303067971343 0.10507261907195747 1 
10 0.6832453064100217 9.937369776335487 0.27290196877503803 0.9428409137444712 0.2678536558246893 1 
11 2.429344225623405 12.35897792916368 0.2729441039364341 0.8607667934878664 0.15381028219127718 1 
12 17.00509355172413 9.229498808526639 0.33192955789172307 0.07037307049766361 0.24422529162093748 1 
13 11.310596208991107 20.867363544051827 0.26424870265981476 0.4571572007460206 0.001838886953143215 1 
14 12.41626072913161 5.397378154265041 0.2741773706593128 0.013450860386316321 0.38480479723016187 1 
15 15.51226575601529 7.020084130896675 0.2960051505094661 0.02955496479424341 0.3306439583296349 1 
16 17.349919690631697 23.851905245406176 0.274715044503634 0.3162449587581311 0.03499023148088698 1 
17 5.985197648280624 9.905688607577842 0.28178708660235796 0.8633454229567088 0.15651768078049433 1 
18 5.724415114608506 6.524403048274418 0.31740330192838184 0.9719503797683889 0.33488537606718943 1 
19 13.732416181320433 16.479803861499573 0.2527993177760584 0.3416946260471247 0.025722224242332503 1 
20 9.51547499965085 20.05623819914755 0.30308010384952394 0.4567806475503553 0.0018714146188422154 1 
21 12.315410038762508 22.879526818599526 0.3198711357366868 0.33195272162765294 0.029085875948016537 1 
22 5.1026990772488015 18.92334204068353 0.2810914207664392 0.6604112881478508 0.026430344474281997 1 
23 13.91166557540707 6.458889874366569 0.33325168050729387 0.01656168993784629 0.37237790017301486 1 
24 16.50181689562092 15.192541459717567 0.28264547825686637 0.22818032786491 0.08034053586226347 1 
25 1.6397252883636813 13.914175708676266 0.3363079882297943 0.9709657045683727 0.33209733438561423 1 
26 11.008606610738129 15.870124984186877 0.3141968480966028 0.4480158082160764 0.0027096986622680563 1 
27 2.833156603948707 13.77140903888071 0.2831586289567837 0.8189448714391679 0.11493614947303527 1 
28 17.69865748386285 5.835162849616383 0.2985563086407983 0.07096334383464176 0.7567636026901947 1 
29 2.283612351553821 18.064778097803813 0.27983921956021873 0.7560786302186089 0.07055415341936183 1 
30 18.480570496229717 17.933691629891168 0.33780275454378905 0.3882833587974891 0.012640387312993051 1 
31 3.8428034846287766 12.818089109451016 0.31232569670425075 0.8124135953720203 0.10961846172401085 1 
32 12.822733271422313 10.389530848219666 0.31153612390764096 0.2634978457185558 0.05946994311371223 1 
33 2.5638978752608863 15.016909958402037 0.29273482761714287 0.8006980508350554 0.10052449108362294 1 
34 11.771843802609615 6.80262406488457 0.32680914093680175 0.13991960155719285 0.15309640149276454 1 
35 5.549604591994827 17.732928052796307 0.3139390063825398 0.6702462716704531 0.029876391804974034 1 
36 7.418682270403978 15.361801480240258 0.2515271029213794 0.6771562776623677 0.03243647139151873 1 
37 3.566021563128395 8.355166169692962 0.28089675567794864 0.9447763195679204 0.27158365743315294 1 
38 6.905708025406369 18.58922573332298 0.304587875268022 0.6795757150788729 0.0333603504266794 1 
39 2.000662854268462 22.53643773726028 0.33899660740369886 0.7080236202445277 0.045328499441233405 1 
40 18.384638847190626 20.101092597735658 0.3459900501911033 0.2551174246592922 0.06407279931793358 1 
41 0.9948666242947248 16.652119419939357 0.25198772303502615 0.8072153750749249 0.10551462217520252 1 
42 13.172266696116465 5.826490867534613 0.3250699384992716 0.021438595581040443 0.35515876898979 1 
43 0.9049282907901814 20.09704948084215 0.2775362047770186 0.760069286910237 0.07295905816186571 1 
44 18.240686132624003 11.928232500389846 0.26050377967838323 0.11539861841827481 0.18049760989089886 1 
45 4.035249533928149 22.06186966383695 0.3315737651903006 0.6772111671597203 0.03245727229066042 1 
46 1.9855056856450957 19.069924838032257 0.26135968442506696 0.7505780525891219 0.06732155177240084 1 
47 18.355156486497254 17.04875586570428 0.3344308207827609 0.13176548788623405 0.16176436602815375 1 
48 6.385758277608969 16.019538645537644 0.26299513287655396 0.7410654589468773 0.06195040862622481 1 
49 5.193876109575708 13.3170445859163 0.2548665402681748 0.7540319750994415 0.06934032505111798 1 
50 10.104128619713306 6.603826553409194 0.26772493316502277 0.43710475328454723 0.003971585551188095 1 
51 11.748340130637622 15.026170430992272 0.25168421184250617 0.41075945862306473 0.00802832828022354 1 
52 5.81995177659751 22.962371320242823 0.30974720415276824 0.5713049303832975 0.005110510413655012 1 
53 0.9446390611265095 24.387333579644114 0.2973741073021869 0.7448099401853635 0.06403200440119605 1 
54 17.964383876744993 7.534524173507078 0.33269048248356164 0.0028677430894585854 0.4465255281556567 1 
55 18.88182593442727 24.140369409716357 0.32144291351413884 0.2868644958569907 0.047702247547364796 1 
56 17.339361603466312 13.320836606629758 0.2912747332760206 0.1667423365279318 0.12725433639391892 1 
57 11.745612068892294 10.482886145202748 0.2516165759915983 0.33849210353787 0.026803212838064694 1 
58 7.315337609735749 5.4578410203177254 0.2949666754493667 0.9933716232639229 0.41885542927637254 1 
59 2.867998001973291 9.955064836758524 0.2543520288393285 0.9124925594936089 0.2174227745156882 1 
60 19.399438132135323 17.021424407624536 0.2692221236056802 0.2513001403536259 0.06623925971582695 1 
61 8.87440724259552 19.119478033324626 0.27903561738974525 0.6032996154548543 0.010787173668883432 1 
62 16.80936703958958 6.015436436671991 0.25107346156668486 8.951779964799234E-4 0.5299061306897856 1 
63 7.595106962960149 24.055832099335486 0.31641695463632225 0.6712380249542427 0.030236720454045962 1 
64 7.186615793357741 20.205756045474327 0.281630807388373 0.5929339110292609 0.008712621594238967 1 
65 4.757322625498145 5.474198206317571 0.26632455664546645 0.9980390769814789 0.45576112795926493 1 
66 7.562259506604762 22.403782820110003 0.3437743173757185 0.5747411739262837 0.005617802788044357 1 
67 4.712508112509028 7.147072734816117 0.3241934562742738 0.9646198128701656 0.31526118575542317 1 
68 10.711481903244746 12.067171934896399 0.2932392389777581 0.4148888862543081 0.0072971500823565405 1 
69 8.109517709324413 13.826530028013858 0.2936283741513605 0.6106530285841489 0.012397798133401028 1 
70 1.699880884972725 9.295593788031095 0.28381337116366867 0.9451674609749767 0.27234690494286595 1 
71 7.194189657489402 23.290325541359806 0.29291363046978425 0.4823779341664559 3.106336975358115E-4 1 
72 11.39518020595958 8.424592003721305 0.31992008481762035 0.3009430176697819 0.041332017919729624 1 
73 2.888851171539755 20.90366699509678 0.2784105916213809 0.6967319897199397 0.040329983334965014 1 
74 1.001551602448431 17.81575893438442 0.3239528411009511 0.78983967472785 0.0925776602177365 1 
75 6.092250624248097 19.20641676211268 0.2650654539408742 0.5456770538784288 0.002090764547405588 1 
76 18.821805862150665 23.00867818862384 0.26192563827822946 0.27883100820936507 0.051575784473770814 1 
77 16.141724642549363 5.297333950370656 0.29325674005731966 0.01025052194728121 0.3992753816235101 1 
78 5.527986569666418 15.781951224607829 0.27393696090877134 0.6267746739672981 0.016338773478289603 1 
79 6.909677887759584 14.009219530292341 0.3079787735359232 0.6661089014773286 0.028398650500239597 1 
80 17.983155347851614 15.314729614476152 0.33930391227307943 0.1899157883231592 0.10776565465432253 1 
81 5.959051667437166 16.689776702936612 0.2684816797121078 0.6512690274410005 0.023431346669701925 1 
82 7.83988913702033 8.007234985143663 0.31776235688978016 0.8013977406814223 0.1010521313352657 1 
83 9.864718447276633 8.475018574343329 0.25813075817578135 0.5192534379171355 3.708323882892217E-4 1 
84 14.67710311675029 15.185088111432918 0.3346642097945456 0.28771118133581536 0.04730423298846176 1 
85 9.834716458475764 17.44823022528171 0.28113076306056567 0.5106216131612293 1.1283139707096712E-4 1 
86 7.395664485794052 10.828642729993774 0.27051379886755483 0.7103903518524326 0.04641880567266726 1 
87 6.340300044624424 23.77685892177371 0.30716895692256746 0.6339097815583835 0.01826545649809791 1 
88 1.7085964470247097 7.958528778965362 0.3134124179263869 0.9714989590395204 0.3336006862254275 1 
89 1.0260992057893839 23.416909813402942 0.3008124381848298 0.6963979811653824 0.04018717613124134 1 
90 16.962815299274936 18.090982197803534 0.291028133884337 0.11237407481431616 0.1841738735887377 1 