10
Time=1 Lattice="20.0 0.00000000 0.00000000 0.00000000 25.0 0.00000000 0.00000000 0.00000000 0.000000000000000001" Properties=id:I:1:pos:R:2:radius:R:1:color:R:3
1 17.872363951630337 7.982098940577964 0.2930110988268352 0.03181745712999817 0.32448616421552723 1 
2 6.692589730987256 7.65968206795288 0.2630657170522076 0.8933688109196989 0.1913562270260062 1 
3 2.8579675126433313 15.98765687950441 0.2769298415043234 0.7746937883880809 0.08221617716694174 1 
4 1.0761167017565434 15.194977840164821 0.27673387273506767 0.8310316259087209 0.12527601805031396 1 
5 15.687117375943952 12.775120013965442 0.3174195859695636 0.20204807761402077 0.09847210315284516 1 
6 7.231234579684764 24.540143550788386 0.30535596868234655 0.5721915206203418 0.005239063435154789 1 
7 4.209136060563633 19.068513397387008 0.2646786068734612 0.6926250481652354 0.03859389815549602 1 
8 1.005944735687276 23.449628461114145 0.2637593343689262 0.7207154767958859 0.05135238961656696 1 
9 19.664697085384482 16.126803628614553 0.33874380637736723 0.004042137224548326 0.4365508207207828 1 
10 6.688079013122598 19.396112222859518 0.3230465130407889 0.6147430734082285 0.013344036197198261 1 
10
Time=201 Lattice="20.0 0.00000000 0.00000000 0.00000000 25.0 0.00000000 0.00000000 0.00000000 0.000000000000000001" Properties=id:I:1:pos:R:2:radius:R:1:color:R:3
1 17.772121264491396 7.944519627129438 0.2930110988268352 0.03181745713250117 0.32448616420885046 1 
2 6.776814030339431 7.593598268712086 0.2630657170522076 0.8933688109182221 0.19135622702412397 1 
3 2.9167822731787902 15.89820507410988 0.2769298415043234 0.7746937915484049 0.08221617924486174 1 
4 1.1469939673689418 15.114745592512437 0.27673387273506767 0.831031623143444 0.12527601560746487 1 
5 15.623322811653948 12.689148770573208 0.3174195859695636 0.20204807768100236 0.0984721031031418 1 
6 7.246691525113603 24.43421015680113 0.30535596868234655 0.5721915206253021 0.005239063435878599 1 
7 4.250379060170296 18.969721615815804 0.2646786068734612 0.6926250481061391 0.03859389813082492 1 
8 1.0532021843474382 23.35356840349706 0.2637593343689262 0.7207154767617718 0.051352389599784276 1 
9 19.528106448406316 16.04652889596495 0.33874380637736723 0.10998316286722898 0.18713123078046034 1 
10 6.712646682685838 19.291914186714227 0.3230465130407889 0.6147430734030699 0.013344036195981956 1 
10
Time=401 Lattice="20.0 0.00000000 0.00000000 0.00000000 25.0 0.00000000 0.00000000 0.00000000 0.000000000000000001" Properties=id:I:1:pos:R:2:radius:R:1:color:R:3
1 17.519582200813595 7.849846939245925 0.2930110988268352 0.03181745713315853 0.32448616420709686 1 
2 6.9889983432780465 7.4271148946002175 0.2630657170522076 0.8933688109169369 0.19135622702248611 1 
3 3.0649529318783197 15.672851228922625 0.2769298415043234 0.7746938031856183 0.08221618689635574 1 
4 1.325553405224803 14.91261836052491 0.27673387273506767 0.83103161305818 0.12527600669813066 1 
5 15.462606653759787 12.472563422258181 0.3174195859695636 0.20204807767928284 0.09847210310441773 1 
6 7.285631847219492 24.16733462808902 0.30535596868234655 0.5721915206238554 0.00523906343566749 1 
7 4.354281587133351 18.720837784692318 0.2646786068734612 0.6926250480841989 0.038593898121665415 1 
8 1.1722567725400692 23.111566540810312 0.2637593343689262 0.7207154767607893 0.05135238959930094 1 
9 19.305165958887237 15.843392361227547 0.33874380637736723 0.14302800510513713 0.14989859346072032 1 
10 6.77453943961688 19.029410504535075 0.3230465130407889 0.6147430734332335 0.013344036203093879 1 
10
Time=601 Lattice="20.0 0.00000000 0.00000000 0.00000000 25.0 0.00000000 0.00000000 0.00000000 0.000000000000000001" Properties=id:I:1:pos:R:2:radius:R:1:color:R:3
1 17.16499670427259 7.716918743688478 0.2930110988268352 0.03181745713364825 0.3244861642057906 1 
2 7.28692246981313 7.193358623326457 0.2630657170522076 0.8933688109159894 0.19135622702127864 1 
3 3.272996669348858 15.35643600894619 0.2769298415043234 0.7746938313583933 0.0822162054200204 1 
4 1.5762654412766937 14.628815191327682 0.27673387273506767 0.8310315886670279 0.1252759851509599 1 
5 15.236948025663697 12.16845988216437 0.3174195859695636 0.20204807767819316 0.09847210310522636 1 
6 7.34030724376332 23.792619562281327 0.30535596868234655 0.5721915206226134 0.005239063435486246 1 
7 4.500169231484215 18.37138453355436 0.2646786068734612 0.6926250480212561 0.038593898095388435 1 
8 1.3394191499379895 22.771776136127116 0.2637593343689262 0.7207154767595713 0.0513523895987017 1 
9 19.026209009373506 15.557607593639041 0.33874380637736723 0.1563628392896027 0.13680101627496732 1 
10 6.861441931604104 18.6608338687735 0.3230465130407889 0.6147430735011506 0.013344036219107291 1 
10
Time=801 Lattice="20.0 0.00000000 0.00000000 0.00000000 25.0 0.00000000 0.00000000 0.00000000 0.000000000000000001" Properties=id:I:1:pos:R:2:radius:R:1:color:R:3
1 16.742034830715752 7.558357383480163 0.2930110988268352 0.031817457133120786 0.32448616420719756 1 
2 7.642296696810991 6.91452603874958 0.2630657170522076 0.8933688109168572 0.19135622702238442 1 
3 3.521158497462777 14.979004983333695 0.2769298415043234 0.7746938969855524 0.08221624857003984 1 
4 1.8753234044335583 14.290284913188604 0.27673387273506767 0.8310315319234051 0.1252759350235914 1 
5 14.967774590609602 11.805714636437422 0.3174195859695636 0.20204807767911898 0.09847210310453935 1 
6 7.405525952327405 23.345646440615468 0.30535596868234655 0.5721915206235846 0.005239063435627966 1 
7 4.674189071401895 17.954544580231005 0.2646786068734612 0.6926250478540807 0.038593898025597095 1 
8 1.538816229126434 22.366462361071477 0.2637593343689262 0.720715476760394 0.051352389599106485 1 
9 18.70997415331445 15.216222945620997 0.33874380637736723 0.16324852424207686 0.13040773334002115 1 
10 6.965102237016194 18.22118287929983 0.3230465130407889 0.614743073680132 0.013344036261307313 1 
10
Time=1001 Lattice="20.0 0.00000000 0.00000000 0.00000000 25.0 0.00000000 0.00000000 0.00000000 0.000000000000000001" Properties=id:I:1:pos:R:2:radius:R:1:color:R:3
1 16.27325725539379 7.382620479932027 0.2930110988268352 0.031817457133494764 0.3244861642061999 1 
2 8.036165456332952 6.605489997702687 0.2630657170522076 0.8933688109163096 0.19135622702168653 1 
3 3.7962016102565195 14.560690256211332 0.2769298415043234 0.7746940535015815 0.08221635147977574 1 
4 2.20677554043459 13.915084610021507 0.27673387273506767 0.8310313967944455 0.1252758156506063 1 
5 14.669443988932207 11.403676421218474 0.3174195859695636 0.20204807767939803 0.09847210310433224 1 
6 7.477809224125314 22.850256692017066 0.30535596868234655 0.5721915206239465 0.0052390634356807575 1 
7 4.867058934100859 17.49255205833247 0.2646786068734612 0.6926250474095913 0.03859389784003431 1 
8 1.7598122222679222 21.917244545964707 0.2637593343689262 0.7207154767610067 0.051352389599407855 1 
9 18.368943835977557 14.837426092246996 0.33874380637736723 0.16726975128561894 0.1267834655451796 1 
10 7.0799911426124105 17.73390840445533 0.3230465130407889 0.6147430741653761 0.01334403637571746 1 
10
Time=1201 Lattice="20.0 0.00000000 0.00000000 0.00000000 25.0 0.00000000 0.00000000 0.00000000 0.000000000000000001" Properties=id:I:1:pos:R:2:radius:R:1:color:R:3
1 15.773780795170861 7.195375075851936 0.2930110988268352 0.03181745713340045 0.3244861642064515 1 
2 8.455827539493773 6.276216081906553 0.2630657170522076 0.8933688109168734 0.19135622702240518 1 
3 4.0892568086740075 14.114981431437174 0.2769298415043234 0.7746944394940227 0.08221660527126656 1 
4 2.5599332060392443 13.515313405221184 0.27673387273506767 0.8310310641279819 0.12527552177326878 1 
5 14.351576580706125 10.975309888382059 0.3174195859695636 0.20204807767962324 0.09847210310416515 1 
6 7.5548261179178855 22.322425304411734 0.30535596868234655 0.5721915206233568 0.005239063435594715 1 
7 5.0725592842320575 17.000304984925425 0.2646786068734612 0.6926250461469906 0.038593897312931336 1 
8 1.9952806025585552 21.438608757970236 0.2637593343689262 0.7207154767615611 0.05135238959968058 1 
9 18.011430930178225 14.43344791941814 0.33874380637736723 0.1697877795702431 0.1245537462181176 1 
10 7.202403790632399 17.214723736461174 0.3230465130407889 0.6147430755451263 0.013344036701033068 1 
10
Time=1401 Lattice="20.0 0.00000000 0.00000000 0.00000000 25.0 0.00000000 0.00000000 0.00000000 0.000000000000000001" Properties=id:I:1:pos:R:2:radius:R:1:color:R:3
1 15.253734497578414 7.0004183824181325 0.2930110988268352 0.03181745713362355 0.32448616420585646 1 
2 8.89277248078154 5.933381745476748 0.2630657170522076 0.893368810916005 0.1913562270212983 1 
3 4.39438165297225 13.650917379269648 0.2769298415043234 0.7746954193284905 0.08221724951843123 1 
4 2.927634076104222 13.099078196969042 0.27673387273506767 0.8310302213620155 0.1252747772767157 1 
5 14.020618503725473 10.529302023839476 0.3174195859695636 0.20204807767883282 0.09847210310475168 1 
6 7.635014782766571 21.77285634423962 0.30535596868234655 0.5721915206238912 0.005239063435672708 1 
7 5.2865227105665795 16.487785800248723 0.2646786068734612 0.6926250423944682 0.03859389574635086 1 
8 2.2404462292132052 20.940261409770798 0.2637593343689262 0.7207154767619566 0.05135238959987515 1 
9 17.642969524241575 14.012514808268214 0.33874380637736723 0.17143342349850488 0.12311274257931304 1 
10 7.329857736685097 16.674157592263317 0.3230465130407889 0.6147430796496514 0.013344037668792386 1 
10
Time=1601 Lattice="20.0 0.00000000 0.00000000 0.00000000 25.0 0.00000000 0.00000000 0.00000000 0.000000000000000001" Properties=id:I:1:pos:R:2:radius:R:1:color:R:3
1 14.719905347263017 6.800294727108907 0.2930110988268352 0.031817457133482774 0.324486164206232 1 
2 9.34129782904687 5.581461227318452 0.2630657170522076 0.8933688109161393 0.1913562270214696 1 
3 4.7075954234456 13.17455496416874 0.2769298415043234 0.7746979586000258 0.08221891912033819 1 
4 3.305077998465686 12.67181067177271 0.27673387273506767 0.8310280423266325 0.12527285234000302 1 
5 13.680889003021246 10.07147355652011 0.3174195859695636 0.20204807767862398 0.09847210310490667 1 
6 7.717328697929868 21.208722088490926 0.30535596868234655 0.5721915206241865 0.005239063435715785 1 
7 5.506156827656922 15.961683254127538 0.2646786068734612 0.6926250309123129 0.038593890952849985 1 
8 2.492109511443218 20.428706298845984 0.2637593343689262 0.720715476762638 0.051352389600210435 1 
9 17.26724211792191 13.580160928598778 0.33874380637736723 0.17253916096244043 0.1221516191687233 1 
10 7.460689619720474 16.119264756017678 0.3230465130407889 0.614743092233649 0.01334404063583039 1 
10
Time=1801 Lattice="20.0 0.00000000 0.00000000 0.00000000 25.0 0.00000000 0.00000000 0.00000000 0.000000000000000001" Properties=id:I:1:pos:R:2:radius:R:1:color:R:3
1 14.17684097423812 6.596708940657349 0.2930110988268352 0.03181745713333245 0.324486164206633 1 
2 9.797582647693904 5.2234524984301 0.2630657170522076 0.893368810914812 0.1913562270197779 1 
3 5.026233585144912 12.689953497300511 0.2769298415043234 0.774704622467872 0.08222330079959711 1 
4 3.6890458621835855 12.237149443620172 0.27673387273506767 0.8310223387271003 0.12526781394755954 1 
5 13.33528219569508 9.605724675234091 0.3174195859695636 0.20204807767845817 0.09847210310502974 1 
6 7.801066640496055 20.63482833293488 0.30535596868234655 0.5721915206233237 0.005239063435589886 1 
7 5.729590577710233 15.426479153188007 0.2646786068734612 0.6926249950464324 0.03859387597978081 1 
8 2.748126558276936 19.908301305192936 0.2637593343689262 0.7207154767622636 0.05135238960002614 1 
9 16.88669776748187 13.140110284334762 0.33874380637736723 0.1732962689226764 0.12149680040961897 1 
10 7.593784917377971 15.554772298245462 0.3230465130407889 0.6147431316124584 0.013344049920515189 1 
9
Time=2001 Lattice="20.0 0.00000000 0.00000000 0.00000000 25.0 0.00000000 0.00000000 0.00000000 0.000000000000000001" Properties=id:I:1:pos:R:2:radius:R:1:color:R:3
1 13.627588525335703 6.390803347647003 0.2930110988268352 0.031817457133653304 0.32448616420577703 1 
2 5.348518185638602 12.199835179150094 0.2769298415043234 0.7747222072033173 0.08223486398535174 1 
3 4.077373248624445 11.797530327218649 0.27673387273506767 0.831007331994174 0.12525455817835657 1 
4 12.985737289583241 9.134668707787842 0.3174195859695636 0.20204807767877536 0.09847210310479432 1 
5 7.885758754922102 20.05439520878332 0.30535596868234655 0.5721915206242146 0.005239063435719893 1 
6 5.955570205870957 14.885176536680714 0.2646786068734612 0.6926248816508492 0.038593828640105465 1 
7 3.007060852109344 19.381966433333645 0.2637593343689262 0.7207154767609724 0.05135238959939098 1 
8 16.502964152852954 12.6948695795234 0.33874380637736723 0.1738217035139379 0.12104390900600298 1 
9 7.728396891634649 14.983847602765637 0.3230465130407889 0.6147432563926984 0.013344079341061077 1 
9
Time=2201 Lattice="20.0 0.00000000 0.00000000 0.00000000 25.0 0.00000000 0.00000000 0.00000000 0.000000000000000001" Properties=id:I:1:pos:R:2:radius:R:1:color:R:3
1 13.074189746205457 6.183343364505552 0.2930110988268352 0.031817457136691096 0.32448616419767373 1 
2 5.67327785154401 11.706029551111573 0.2769298415043234 0.7747685742679817 0.08226535863692053 1 
3 4.4685898668969815 11.354579938650321 0.27673387273506767 0.8309678900879598 0.12521972339686266 1 
4 12.633553654025823 8.660056718699035 0.3174195859695636 0.2020480776739133 0.09847210310840221 1 
5 7.971090213742439 19.469580370149487 0.30535596868234655 0.5721915206235798 0.0052390634356273 1 
6 6.183255471916977 14.339787590204454 0.2646786068734612 0.6926245208964268 0.03859367803483443 1 
7 3.2679498520005263 18.851658237014767 0.2637593343689262 0.7207154767618835 0.05135238959983918 1 
8 16.117122218221112 12.246126740852915 0.33874380637736723 0.1741900994947015 0.12072713156260773 1 
9 7.864025348954452 14.408612986182261 0.3230465130407889 0.6147436543432163 0.013344173169616225 1 
9
Time=2401 Lattice="20.0 0.00000000 0.00000000 0.00000000 25.0 0.00000000 0.00000000 0.00000000 0.000000000000000001" Properties=id:I:1:pos:R:2:radius:R:1:color:R:3
1 12.5180127118294 5.974841859637823 0.2930110988268352 0.03181745725926738 0.32448616387070195 1 
2 5.999780821828586 11.209775625343575 0.2769298415043234 0.7748899478144952 0.08234521840335152 1 
3 4.861657213344828 10.909375124168065 0.27673387273506767 0.8308649912228007 0.12512887870211176 1 
4 12.279601933527545 8.183062011681542 0.3174195859695636 0.20204807747422937 0.09847210325657674 1 
5 8.056850066305477 18.881829556657177 0.30535596868234655 0.5721915206233487 0.0052390634355935495 1 
6 6.412082856868966 13.79166057235004 0.2646786068734612 0.6926233714070501 0.038593198156137265 1 
7 3.5301486058405738 18.318687708231092 0.2637593343689262 0.7207154767609821 0.051352389599395754 1 
8 15.729889170115442 11.795018834636199 0.33874380637736723 0.17445053938746008 0.12050355904846177 1 
9 8.000335647545972 13.83049052066806 0.3230465130407889 0.6147449258956291 0.013344472977849964 1 
9
Time=2601 Lattice="20.0 0.00000000 0.00000000 0.00000000 25.0 0.00000000 0.00000000 0.00000000 0.000000000000000001" Properties=id:I:1:pos:R:2:radius:R:1:color:R:3
1 11.95997410329016 5.765642477325471 0.2930110988268352 0.03181746148236986 0.32448615260559144 1 
2 6.327675850890808 10.71193317344601 0.2769298415043234 0.7752025897426238 0.08255115930337875 1 
3 5.255739731915435 10.462607993768628 0.27673387273506767 0.8306007180225096 0.12489579415447616 1 
4 11.924465504617087 7.704470764820691 0.3174195859695636 0.20204807107044254 0.09847210800847728 1 
5 8.142896964786317 18.29211148847512 0.30535596868234655 0.5721915206228756 0.005239063435524549 1 
6 6.641673121354319 13.24169888688158 0.2646786068734612 0.6926197165280175 0.03859167237178496 1 
7 3.793224962427445 17.783933279281946 0.2637593343689262 0.7207154767606136 0.05135238959921451 1 
8 15.34174037147402 11.342312209331963 0.33874380637736723 0.1746359969782666 0.12034454364822644 1 
9 8.137105209245359 13.250433070059747 0.3230465130407889 0.6147489816756724 0.013345429278223908 1 
9
Time=2801 Lattice="20.0 0.00000000 0.00000000 0.00000000 25.0 0.00000000 0.00000000 0.00000000 0.000000000000000001" Properties=id:I:1:pos:R:2:radius:R:1:color:R:3
1 11.40068813847711 5.555975357444 0.2930110988268352 0.03181757500412996 0.3244858497870142 1 
2 6.657079818010504 10.213138953576829 0.2769298415043234 0.7759826893294461 0.08306648588715437 1 
3 5.649923448092779 10.014681956337025 0.27673387273506767 0.8299419304975688 0.12431619345580319 1 
4 11.568535265383291 7.224809878357175 0.3174195859695636 0.2020479166098892 0.09847222262526784 1 
5 8.229136198848083 17.701075258114965 0.30535596868234655 0.5721915206226985 0.005239063435498681 1 
6 6.871766880375789 12.690507979703742 0.2646786068734612 0.6926081587847241 0.038586847641337296 1 
7 4.056889358151369 17.24798354515008 0.2637593343689262 0.7207154767614812 0.05135238959964128 1 
8 14.952990501706307 10.888523643625051 0.33874380637736723 0.1747689651719887 0.1202306305338714 1 
9 8.274190157854722 12.6690789936628 0.3230465130407889 0.6147618534379459 0.013348464509267743 1 
9
Time=3001 Lattice="20.0 0.00000000 0.00000000 0.00000000 25.0 0.00000000 0.00000000 0.00000000 0.000000000000000001" Properties=id:I:1:pos:R:2:radius:R:1:color:R:3
1 10.840565887220368 5.345992173664864 0.2930110988268352 0.03181963250918135 0.32448036150857085 1 
2 6.988903147301801 9.71392191662783 0.2769298415043234 0.7778077379133248 0.0842803098775794 1 
3 6.0427583299798355 9.565765731279926 0.27673387273506767 0.828392936824432 0.12296143560131068 1 
4 11.212073620684194 6.7444349668910215 0.3174195859695636 0.20204559259939825 0.09847394715839891 1 
5 8.315504307675916 17.109155791058875 0.30535596868234655 0.5721915206238672 0.005239063435669211 1 
6 7.102173643461982 12.138494328219952 0.2646786068734612 0.6925719344492018 0.03857172814998394 1 
7 4.320947770447783 16.711232894850955 0.2637593343689262 0.720715476761971 0.05135238959988225 1 
8 14.563847569385093 10.434001838682285 0.33874380637736723 0.17486496005146163 0.12014844241774869 1 
9 8.41151073342763 12.086855261766948 0.3230465130407889 0.614802361396771 0.013358018849868258 1 
9
Time=3201 Lattice="20.0 0.00000000 0.00000000 0.00000000 25.0 0.00000000 0.00000000 0.00000000 0.000000000000000001" Properties=id:I:1:pos:R:2:radius:R:1:color:R:3
1 10.531275079079794 5.371451860290665 0.2930110988268352 0.060259366670478376 0.7379667527175828 1 
2 7.325435702432243 9.214730998327566 0.2769298415043234 0.7815469742637251 0.08680355606208168 1 
3 6.4315771885044395 9.115879087813202 0.27673387273506767 0.825158311293092 0.12016836282765408 1 
4 10.855328916555917 6.263791131761437 0.3174195859695636 0.20171015901689693 0.09872307471488584 1 
5 8.40195876925063 16.51664450983278 0.30535596868234655 0.572191520625017 0.005239063435836966 1 
6 7.332713658448487 11.585934315169386 0.2646786068734612 0.6924599134353856 0.03852499339569443 1 
7 4.58527019418542 16.173945589383568 0.2637593343689262 0.7207154767628804 0.05135238960032962 1 
8 14.174448838465212 9.978982249620753 0.33874380637736723 0.17493477624831777 0.12008869415708523 1 
9 8.549065445254056 11.50404405829424 0.3230465130407889 0.6149281980860194 0.01338772181057668 1 
9
Time=3401 Lattice="20.0 0.00000000 0.00000000 0.00000000 25.0 0.00000000 0.00000000 0.00000000 0.000000000000000001" Properties=id:I:1:pos:R:2:radius:R:1:color:R:3
1 10.224765812476276 5.3036628893151665 0.2930110988268352 0.11156973474389831 0.18516364721799605 1 
2 7.670517389108105 8.715713745469547 0.2769298415043234 0.7874563083458517 0.09089259259679167 1 
3 6.812244911112902 8.665189565852074 0.27673387273506767 0.8198187730546769 0.11566166935654071 1 
4 10.544157725351061 5.8838723996929225 0.3174195859695636 0.11094911292309018 0.185930887757695 1 
5 8.488471091622314 15.923736682565307 0.30535596868234655 0.5721915206247028 0.005239063435791114 1 
6 7.563107103109894 11.033030965183315 0.2646786068734612 0.6921206907279738 0.03838366558991191 1 
7 4.849769519214632 15.636298697252958 0.2637593343689262 0.7207154767624082 0.05135238960009736 1 
8 13.784884709598789 9.523623989264275 0.33874380637736723 0.17498597501227747 0.12004489270272989 1 
9 8.68701209044823 10.920817003685878 0.3230465130407889 0.6153110045623297 0.013478292131968272 1 
8
Time=3601 Lattice="20.0 0.00000000 0.00000000 0.00000000 25.0 0.00000000 0.00000000 0.00000000 0.000000000000000001" Properties=id:I:1:pos:R:2:radius:R:1:color:R:3
1 8.027266291224594 8.21619885818539 0.2769298415043234 0.7933610142191081 0.09510579735400476 1 
2 7.181344043846145 8.214576206946692 0.27673387273506767 0.8140807503643377 0.11095850831746162 1 
3 10.355678250561587 5.72647997380734 0.3174195859695636 0.14929179803575487 0.14362413511152827 1 
4 8.575022183713003 15.330563148979628 0.30535596868234655 0.5721915206237462 0.005239063435651559 1 
5 7.792697389807969 10.479992509367642 0.2646786068734612 0.6911306993440042 0.03797288416341632 1 
6 5.114387377239179 15.09841086349769 0.2637593343689262 0.7207154767620203 0.051352389599906456 1 
7 13.39521458397469 9.068034673707386 0.33874380637736723 0.17502388429713678 0.12001246833260532 1 
8 8.825923388998527 10.337218125898037 0.3230465130407889 0.6164315883824748 0.013745246576720882 1 
8
Time=3801 Lattice="20.0 0.00000000 0.00000000 0.00000000 25.0 0.00000000 0.00000000 0.00000000 0.000000000000000001" Properties=id:I:1:pos:R:2:radius:R:1:color:R:3
1 8.393654316919378 7.714589073512729 0.2769298415043234 0.7956415356525447 0.09676795465017274 1 
2 7.540496175789074 7.76575598161699 0.27673387273506767 0.8114837553128488 0.10887614471090445 1 
3 10.13512006383027 5.46274003651455 0.3174195859695636 0.20363829340474482 0.09729695945529804 1 
4 8.66159925351838 14.73721157844811 0.30535596868234655 0.572191520626294 0.005239063436023317 1 
5 8.019774749370871 9.927221579874246 0.2646786068734612 0.6884506469479821 0.036873285520164556 1 
6 5.379084658488964 14.56036158641919 0.2637593343689262 0.7207154767624713 0.05135238960012839 1 
7 13.005477393793237 8.612287154989946 0.33874380637736723 0.17505228043757998 0.11998818498475233 1 
8 8.967445406127839 9.753017705122494 0.3230465130407889 0.6194548805253123 0.014479113200386196 1 
8
Time=4001 Lattice="20.0 0.00000000 0.00000000 0.00000000 25.0 0.00000000 0.00000000 0.00000000 0.000000000000000001" Properties=id:I:1:pos:R:2:radius:R:1:color:R:3
1 8.762415348919752 7.209145987302515 0.2769298415043234 0.7929885965079376 0.09483622778398743 1 
2 7.896341040534798 7.3204913073585445 0.27673387273506767 0.8135221998085616 0.11050824113057228 1 
3 9.941962874028587 5.104670934424973 0.3174195859695636 0.36012366117370054 0.019963949440721385 1 
4 8.74819372973442 14.143740713973951 0.30535596868234655 0.572191520626269 0.005239063436019653 1 
5 8.240399224519114 9.375780919922994 0.2646786068734612 0.6823082751193571 0.03442112072925302 1 
6 5.6438351573990095 14.022204133979717 0.2637593343689262 0.720715476761967 0.051352389599880255 1 
7 12.615698588014924 8.15643079297119 0.33874380637736723 0.17507385836664546 0.11996973477989775 1 
8 9.115449558584082 9.167280461740647 0.3230465130407889 0.6262377120126765 0.01619834635896028 1 
7
Time=4201 Lattice="20.0 0.00000000 0.00000000 0.00000000 25.0 0.00000000 0.00000000 0.00000000 0.000000000000000001" Properties=id:I:1:pos:R:2:radius:R:1:color:R:3
1 9.125874538994568 6.698454656541246 0.2769298415043234 0.786298091676775 0.09008122426237058 1 
2 8.255563194002617 6.880087263379672 0.27673387273506767 0.8189240807197133 0.114918929656253 1 
3 8.83479986914233 13.550189916400175 0.30535596868234655 0.5721915206252558 0.005239063435871827 1 
4 8.448487566223738 8.8279530288257 0.2646786068734612 0.6724332427980203 0.030674125177229394 1 
5 5.908621314888257 13.483974198465214 0.2637593343689262 0.7207154767622231 0.05135238960000632 1 
6 12.225894765539381 7.7004990488312695 0.33874380637736723 0.17509056027472775 0.11995545527213564 1 
7 9.275891586355474 8.577840114549923 0.3230465130407889 0.6365662729125966 0.019011795256097586 1 
7
Time=4401 Lattice="20.0 0.00000000 0.00000000 0.00000000 25.0 0.00000000 0.00000000 0.00000000 0.000000000000000001" Properties=id:I:1:pos:R:2:radius:R:1:color:R:3
1 9.478427671025768 6.1809836398660485 0.2769298415043234 0.7761692154003843 0.08319001395703557 1 
2 8.622080436251952 6.445724537143838 0.27673387273506767 0.826148717858699 0.12101845184873877 1 
3 8.921413823491484 12.956585559523026 0.30535596868234655 0.572191520626402 0.005239063436039082 1 
4 8.641588418895836 8.286279921223015 0.2646786068734612 0.6643686519250296 0.02778929886718101 1 
5 6.1734313654655555 12.945695695550704 0.2637593343689262 0.720715476760976 0.051352389599392756 1 
6 11.83607675191166 7.24451459688831 0.33874380637736723 0.17510381077965403 0.11994412748900041 1 
7 9.450919807602942 7.982298999025245 0.3230465130407889 0.6442091724615202 0.021247752404269626 1 
7
Time=4601 Lattice="20.0 0.00000000 0.00000000 0.00000000 25.0 0.00000000 0.00000000 0.00000000 0.000000000000000001" Properties=id:I:1:pos:R:2:radius:R:1:color:R:3
1 9.814798457600313 5.654141742466285 0.2769298415043234 0.7606412448541398 0.07330790787631841 1 
2 8.997591710187153 6.019025902739017 0.27673387273506767 0.8346787318516122 0.12852975025421398 1 
3 9.008033014256027 12.362945315149183 0.30535596868234655 0.5721915206302592 0.0052390634366019095 1 
4 8.826993140006566 7.750987743552566 0.2646786068734612 0.6643976012237588 0.027799376629092154 1 
5 6.43825742564293 12.407384649969737 0.2637593343689262 0.720715476758164 0.05135238959800942 1 
6 11.446251658776774 6.788492753942106 0.33874380637736723 0.17511470910699806 0.11993481116870292 1 
7 9.632575821641359 7.3806368746799125 0.3230465130407889 0.6433121328903812 0.020978463358473087 1 
7
Time=4801 Lattice="20.0 0.00000000 0.00000000 0.00000000 25.0 0.00000000 0.00000000 0.00000000 0.000000000000000001" Properties=id:I:1:pos:R:2:radius:R:1:color:R:3
1 10.118262679783552 5.112343312681091 0.2769298415043234 0.7070766826238921 0.044896443088516536 1 
2 9.383186316184137 5.602765736168241 0.27673387273506767 0.8453264218045256 0.13840677218221736 1 
3 9.09465571370539 11.769281024298683 0.30535596868234655 0.5721915206649565 0.0052390634416646376 1 
4 9.015767221351307 7.220476085551149 0.2646786068734612 0.6717094410984901 0.030408829046324415 1 
5 6.703094213063202 11.86905179912415 0.2637593343689262 0.7207154767297531 0.05135238958403243 1 
6 11.056428856007791 6.332442529665419 0.33874380637736723 0.17514339672351392 0.11991029044755269 1 
7 9.808506254635457 6.774754364513714 0.3230465130407889 0.6344600795428814 0.018418763852533382 1 
6
Time=5001 Lattice="20.0 0.00000000 0.00000000 0.00000000 25.0 0.00000000 0.00000000 0.00000000 0.000000000000000001" Properties=id:I:1:pos:R:2:radius:R:1:color:R:3
1 9.784868002607718 5.19962421422704 0.27673387273506767 0.8614348743659977 0.1545078414898025 1 
2 9.181280764297096 11.175600621061108 0.30535596868234655 0.5721915209689316 0.005239063486018214 1 
3 9.215169812790062 6.694007375004218 0.2646786068734612 0.6828150036244185 0.034619860275705516 1 
4 6.967938188146557 11.330704337632923 0.2637593343689262 0.7207154764845976 0.05135238946342635 1 
5 10.67194351393448 5.874307433282978 0.33874380637736723 0.19916662179319172 0.100626392263235 1 
6 9.963827100361275 6.168434649621618 0.3230465130407889 0.595167993088264 0.009140495567670437 1 
5
Time=5201 Lattice="20.0 0.00000000 0.00000000 0.00000000 25.0 0.00000000 0.00000000 0.00000000 0.000000000000000001" Properties=id:I:1:pos:R:2:radius:R:1:color:R:3
1 9.267907391521657 10.581909421583743 0.30535596868234655 0.5721915236039647 0.005239063870500993 1 
2 9.416458011695708 6.184676440165175 0.2646786068734612 0.6660845903273804 0.02839008825536099 1 
3 7.232786978086552 10.792347086366101 0.2637593343689262 0.7207154743874425 0.051352388431715634 1 
4 10.576446503948842 5.297810867542206 0.33874380637736723 0.522203335945048 4.932314043068486E-4 1 
5 9.824168026341345 5.682040910926998 0.3230465130407889 0.2883211130563805 0.04701871029554616 1 
4
Time=5401 Lattice="20.0 0.00000000 0.00000000 0.00000000 25.0 0.00000000 0.00000000 0.00000000 0.000000000000000001" Properties=id:I:1:pos:R:2:radius:R:1:color:R:3
1 9.354535085774028 9.988210986754085 0.30535596868234655 0.5721915456814147 0.005239067091864835 1 
2 9.501339818279318 5.880783874356768 0.2646786068734612 0.6589999983490709 0.025954642966524277 1 
3 7.497638983600503 10.2539832767749 0.2637593343689262 0.7207154570589167 0.051352379906820955 1 
4 9.779794384725 5.056461796218097 0.3230465130407889 0.5636440414277172 0.004067105355223477 1 
3
Time=5601 Lattice="20.0 0.00000000 0.00000000 0.00000000 25.0 0.00000000 0.00000000 0.00000000 0.000000000000000001" Properties=id:I:1:pos:R:2:radius:R:1:color:R:3
1 9.44116358157044 9.394507689295358 0.30535596868234655 0.5721917226148305 0.005239092908601584 1 
2 9.63444814881709 5.577327090123792 0.2646786068734612 0.7297665308825493 0.05591966798089498 1 
3 7.762493056871927 9.715615087484549 0.2637593343689262 0.7207153205632106 0.05135231275679225 1 
3
Time=5801 Lattice="20.0 0.00000000 0.00000000 0.00000000 25.0 0.00000000 0.00000000 0.00000000 0.000000000000000001" Properties=id:I:1:pos:R:2:radius:R:1:color:R:3
1 9.527793284722492 8.80080098436909 0.30535596868234655 0.5721930591002558 0.005239287920163371 1 
2 9.84627228742494 5.21889137907957 0.2646786068734612 0.7772232908377064 0.0838903425572623 1 
3 8.027347842767863 9.177244114087163 0.2637593343689262 0.7207143117755566 0.05135181647816467 1 
2
Time=6001 Lattice="20.0 0.00000000 0.00000000 0.00000000 25.0 0.00000000 0.00000000 0.00000000 0.000000000000000001" Properties=id:I:1:pos:R:2:radius:R:1:color:R:3
1 9.614428623355453 8.207090590679968 0.30535596868234655 0.5722023701579385 0.00524064663356183 1 
2 8.292198254593423 8.638872691011919 0.2637593343689262 0.720707481752682 0.051348456485002636 1 
2