100
Time=1 Lattice="20.0 0.00000000 0.00000000 0.00000000 25.0 0.00000000 0.00000000 0.00000000 0.000000000000000001" Properties=id:I:1:pos:R:2:radius:R:1:color:R:3
1 15.372206581518732 9.598563741965807 0.26779816540532636 0.11732448718864885 0.1781934557928173 1 
2 0.7596705670075803 22.914434135577523 0.3194498695982511 0.8557967761805395 0.1487043210349221 1 
3 8.978109124204595 22.553221404978782 0.3209755465582095 0.5317878801246951 0.001011492439777717 1 
4 14.663349378245533 23.408789413637205 0.29130960521954735 0.3748402052001588 0.015918368696289376 1 
5 10.907958404665592 10.704766331500364 0.25420711828219145 0.41337852096074656 0.007560440897512621 1 
6 15.729096532977707 19.583348126945836 0.30945044631504987 0.3157005093570909 0.03520574686344902 1 
7 1.5227448903498177 9.1220421712391 0.30838997708266835 0.9506221068577332 0.28334424353113136 1 
8 5.344668812701306 16.761461911586128 0.2695170219293682 0.6816408365841243 0.03416032104916239 1 
9 19.816468836635952 10.95176565497412 0.26271881135834 1.8194646190794472E-5 0.49573452052570466 1 
10 8.645813835979396 9.197382884162613 0.3169779042352593 0.48789854889077355 0.9998535334285945 1 
11 1.7825454238538327 5.808387465191855 0.28027084276341435 0.9976513573092116 0.451594147375556 1 
12 5.569004454301935 23.870353807690375 0.3097241825965211 0.488327348848269 1.3626935424693176E-4 1 
13 17.095761785048875 18.329272635565847 0.2978367836517325 0.3604387126487109 0.019872259629949207 1 
14 7.691428850329339 20.169039640031546 0.30565302150241075 0.5755735812339646 0.005744363897109084 1 
15 5.75908085913545 19.002648225659183 0.2851332499920162 0.6834748370518781 0.03487960250190403 1 
16 13.058834335575956 17.474137774145845 0.31119872159100137 0.12146670487618838 0.8266688605954191 1 
17 15.699128502164658 13.49292235644699 0.2634860545245118 0.21816467432025954 0.08700018256784348 1 
18 16.53566959999067 12.099692136135342 0.3291698119221164 0.15870118015950108 0.13460279752646892 1 
19 16.21652801969117 18.405237240044865 0.25944410572807347 0.2079423471024156 0.09416465483652847 1 
20 11.463648751863813 15.833343244128558 0.2559789740971398 0.42880811483579473 0.00509423575112139 1 
21 1.4234012355594154 14.89486865599706 0.32466775581973467 0.8293731957691286 0.12381746729967469 1 
22 14.60978488073851 20.178212942243885 0.30966705989293314 0.8850935920513578 0.8189089609292632 1 
23 13.527247628844561 9.580608488762755 0.3064936935324227 0.1808503021227903 0.1151058972329067 1 
24 10.141459774171096 9.580393572353154 0.27033958299498306 0.2212048664062452 0.9150581567496782 1 
25 10.434398704274935 8.94759145620488 0.3320335020806175 0.6566899203361982 0.02518606921759775 1 
26 5.1120495714695116 17.66460835480602 0.297132499705049 0.6914413912834889 0.03810153312287112 1 
27 3.797127765459321 18.692042101231277 0.3272997832465687 0.72114465494555 0.05156378202801948 1 
28 4.477438938526306 15.964760368336101 0.25304567582430204 0.726532920786007 0.05426147148786803 1 
29 18.669700393278113 19.57570199522027 0.3380201876445989 0.23976549030611655 0.07305972318790993 1 
30 3.228136106309257 20.035913196471583 0.33743059890624677 0.5426048980307383 0.9981815157789281 1 
31 8.932878943775785 20.02301873579215 0.3334057930155664 0.5412706431561427 0.001706177026567668 1 
32 12.335565614501924 11.436380492671338 0.25116038730183693 0.5227248516680101 5.16685847598175E-4 1 
33 19.406364101026757 20.448137588799508 0.34265867758356405 0.24062799472352964 0.07253519106379919 1 
34 10.262797174407211 14.983588445002084 0.3211737955101463 0.42099024007311614 0.006282005760073428 1 
35 15.390931524006533 21.550176931058413 0.3074695516113801 0.3430181283060869 0.02528251353096772 1 
36 11.749163252975082 11.975793315908353 0.29786191242585536 0.30583067679089215 0.039241631736853855 1 
37 12.556770038903672 7.5407458873573185 0.2947673890240566 0.13889212201748335 0.15416607965822116 1 
38 17.25364554944083 6.337875996858256 0.33341093695321355 0.006956770341904395 0.4168833729731867 1 
39 12.083273651713512 17.921673821325566 0.3416994523380429 0.38548661740603624 0.013289937224543857 1 
40 13.94441829029147 11.724553378408611 0.3135426712148294 0.24248392757317289 0.07141456809422331 1 
41 6.469337591941863 7.623246242303353 0.33996454547658755 0.9119431217653337 0.2166223995615894 1 
42 16.873273789319477 5.258381812936585 0.2749855838351477 0.4596959497766409 0.9983729361989804 1 
43 0.3371668660480719 22.131830472041383 0.27647990446201887 0.6430871560872851 0.020911213069171375 1 
44 1.51990514945504 18.158749770614723 0.31140455901983494 0.7810933941402167 0.08649485641562721 1 
45 6.814171330518468 21.19711966051078 0.25078040640048305 0.5995561652900554 0.010011663452343833 1 
46 7.858220737004562 23.826264063650004 0.2804207363491151 0.5810241685784537 0.006608589346986826 1 
47 8.717714785047496 8.50728307568182 0.2819381857075295 0.5795036994666867 0.006361304422849379 1 
48 6.338716608378125 23.319306880212128 0.3418307087080174 0.2497318594174952 0.9328577801188003 1 
49 9.010418480517515 18.77804495625976 0.2961235607916542 0.3715076045541117 0.016792276228351777 1 
50 14.13017300322021 19.642478913374628 0.3143154799988834 0.2021056190027773 0.09842941122352905 1 
51 5.816374489654754 6.718955444588746 0.2737398757413277 0.9617233837706414 0.30813672347374804 1 
52 0.7712889138256476 12.446804749552676 0.25600552402322757 0.8907001354676445 0.187984929617872 1 
53 11.939821487770006 22.827182797073224 0.3074529279163383 0.44305302544535846 0.00325354345594675 1 
54 10.955938717704171 12.81734995925151 0.28849291497028096 0.04206861757191416 0.2992542678224462 1 
55 5.821320615191238 20.297294157020353 0.33106030823806604 0.6349173647381101 0.01854667444068503 1 
56 17.86839452055708 10.679129635477507 0.2685712342512925 0.09281673304597882 0.20982455804694583 1 
57 16.484371927222977 16.010281689846174 0.27722983573582016 0.2434835932286456 0.07081550231035483 1 
58 17.516290369208427 9.32875762568578 0.3055176391530371 0.06538696714583281 0.2527925735878823 1 
59 14.092532837836666 21.15422317902087 0.28946456639860463 0.3666260363129673 0.018116833858651926 1 
60 2.948902075600632 6.807712639461118 0.2515505634775615 0.9847404248768614 0.3774164754536733 1 
61 18.727283820480917 8.502635488965833 0.28157214111148454 0.03502829121860407 0.31614867410619873 1 
62 3.537433920994404 22.93803402041817 0.3007050266081639 0.6716993903068537 0.03040515402290167 1 
63 3.1817246354127238 19.444520438063183 0.3143387095584945 0.4634269684880107 0.0013393805742997755 1 
64 13.483634699476037 17.094192708630782 0.2973315252506441 0.8665750575416937 0.1599665793068218 1 
65 12.707509586540533 10.410189565203316 0.2535050867474087 0.26990482719346265 0.05608986106292896 1 
66 6.615274369004186 22.839449160017292 0.32437334133691476 0.7486431285012898 0.06620673743234429 1 
67 17.409303427139804 14.542249550531409 0.3215501016381656 0.19088876029518564 0.10699842050170738 1 
68 9.911412446418717 18.980708167306393 0.34720179767492965 0.6918250730900011 0.03826074313091399 1 
69 19.013096029877094 23.38981379545482 0.3458011570156132 0.27807019409966305 0.051951831548170735 1 
70 13.790391781257943 8.561287496393103 0.27884373199973045 0.14216853770083415 0.1507770846739283 1 
71 9.647934132119559 16.417287216289587 0.3011748634959705 0.5196158555740398 3.849299609764434E-4 1 
72 2.825361904274442 15.026195712447313 0.2937364856362489 0.7937565912791793 0.09539270263620159 1 
73 12.550967246301429 24.040225667127842 0.3131239484943533 0.4313454841988039 0.004735871014159454 1 
74 17.446067090936147 24.15010664581201 0.3005719986987792 0.6252514021274993 0.015942063111144267 1 
75 4.547861103716596 24.693199859934253 0.3174155922403125 0.5150615971696721 2.269031943610833E-4 1 
76 17.3482604456514 20.565197063967407 0.33028452079431436 0.28424195854806567 0.048947378292925336 1 
77 3.0155143394022614 17.328355989222917 0.31203862976270474 0.7489831929971869 0.06640183394653798 1 
78 12.615490316246545 14.212522349034474 0.25679996437568403 0.35882598594525417 0.02034397975666935 1 
79 16.81111586624247 24.65190787148999 0.3032426959765511 0.007785585478508217 0.41210819072709315 1 
80 3.83381246014359 9.648521287060023 0.3388653490616673 0.03717501238319376 0.6891904618037156 1 
81 16.329973926577743 23.897127713598742 0.2644243072246953 0.31681831295133456 0.034764071110146566 1 
82 10.960717755359035 14.291469748345985 0.30824315687403286 0.49775674336480646 5.0322256546220245E-6 1 
83 19.150626686269323 5.700596603431547 0.3418278049844189 0.001428998971735429 0.46222491649679387 1 
84 7.638607323686323 24.62672610868825 0.2789789482747882 0.5101950774191853 1.0395040927074772E-4 1 
85 6.168339064577059 11.051192901752291 0.25492120420720543 0.7722291787555289 0.08060606318868851 1 
86 9.136008370742717 24.533699171955877 0.2745854473847434 0.5246606197804885 6.085164602401827E-4 1 
87 8.52116184952019 11.684554826549546 0.32849792471669437 0.6146699370802451 0.013326798015328767 1 
88 5.472584138040316 5.674216254055473 0.26414862800053585 0.9939456434225011 0.4224261555424039 1 
89 2.457143155077684 12.846538756679713 0.33626826452849956 0.8487869627849443 0.14174359099765715 1 
90 4.803900326896574 19.30190763707219 0.32793017166153915 0.6430823971670538 0.020909791770976127 1 
91 11.722386745081431 12.818954662803556 0.3367240896240672 0.9998019924274336 0.48592987684604033 1 
92 19.502667730430943 13.442983871052972 0.29045751275202697 0.12455469819894194 0.16978669718572442 1 
93 0.4734466458698528 17.747150483892735 0.2977344124732059 0.7934965499022844 0.09520403263439509 1 
94 14.342926889499294 5.211851249069484 0.33086117594101583 0.494410343517286 0.9999687547641405 1 
95 10.012762101662236 13.410446824284088 0.26956850402354626 0.4992925431678993 5.004954197751488E-7 1 
96 4.50913045423317 9.314114625789447 0.3119059219886282 0.9378246267617355 0.25852619976289976 1 
97 9.635329896070171 5.663907315744671 0.3113193712551914 0.7851144289098453 0.08925706040467019 1 
98 18.628675651577424 12.182412829992563 0.33039614714446774 0.11398151662926731 0.18221118569691697 1 
99 18.0027595250629 7.527069524048669 0.26404924136691804 0.022900195487782937 0.35041465133775873 1 
100 8.020539790917997 16.717442685608876 0.34110836446058157 0.5871942738733325 0.007661540600673478 1 
100
Time=201 Lattice="20.0 0.00000000 0.00000000 0.00000000 25.0 0.00000000 0.00000000 0.00000000 0.000000000000000001" Properties=id:I:1:pos:R:2:radius:R:1:color:R:3
1 15.344895046949688 9.575596422571428 0.26779816540532636 0.11732449357942931 0.17819344819323557 1 
2 0.7813177856461035 22.89234367203668 0.3194498695982511 0.8442518732728096 0.13738360799853316 1 
3 8.980377867745954 22.51760812139764 0.3209755465582095 0.5317882410727601 0.001011515433973098 1 
4 14.654416689790558 23.374240387733863 0.29130960521954735 0.37484012709912706 0.01591838888939673 1 
5 10.901779074796343 10.669631513458953 0.25420711828219145 0.41340539298863427 0.007555714789432122 1 
6 15.715961778177913 19.55020054803075 0.30945044631504987 0.31590416768463636 0.035125044206387124 1 
7 1.5549058293604017 9.106579431011328 0.30838997708266835 0.9506221065432763 0.2833442428770929 1 
8 5.35925233795912 16.724096876684474 0.2695170219293682 0.6819487729411359 0.03428050929211157 1 
9 19.306132919638642 10.937427120524088 0.26271881135834 0.0010285673161505304 0.4679452130653368 1 
10 8.647977399881604 9.254180077839377 0.3169779042352593 0.5788688807140252 0.9937405185468546 1 
11 1.81806174371738 5.8049328326626615 0.28027084276341435 0.9976513304785739 0.45159387153566954 1 
12 5.418100888612546 23.930676483282653 0.3097241825965211 0.035179902783001205 0.6842342998010409 1 
13 17.086213277943575 18.2972306647022 0.2978367836517325 0.35400557947580236 0.021789137329771946 1 
14 7.696815500548404 20.13380362788689 0.30565302150241075 0.5755435303437978 0.0057397699357192855 1 
15 5.772933925611939 18.967440503891087 0.2851332499920162 0.6826594668702658 0.0345587908632603 1 
16 12.818824649772433 17.65256914644216 0.31119872159100137 0.07407419302411405 0.7618915938932374 1 
17 15.679014141013516 13.463446910646713 0.2634860545245118 0.21816440695442485 0.08700036502116743 1 
18 16.511310868413414 12.073613469500991 0.3291698119221164 0.15870142295761325 0.1346025707413338 1 
19 16.193953832256845 18.373528278499705 0.25944410572807347 0.21210551049037812 0.09120082814419228 1 
20 11.458568527512385 15.798026837191653 0.2559789740971398 0.42880864269823515 0.005094159818726296 1 
21 1.446899600263907 14.868030628971649 0.32466775581973467 0.829370932987153 0.12381548609336357 1 
22 14.660147754869998 20.211181508093418 0.30966705989293314 0.9634864059449986 0.6875642596663554 1 
23 13.504947906670186 9.553715780959935 0.3064936935324227 0.1808406372427181 0.11511391144344313 1 
24 10.101426850966439 9.627453692777705 0.27033958299498306 0.10958141745464456 0.8123673004705766 1 
25 10.467798890140237 8.829525875128146 0.3320335020806175 0.6148513665543859 0.013369582125623725 1 
26 5.123991957347747 17.63575847435233 0.297132499705049 0.6910329262713795 0.03793244965676967 1 
27 3.831789501403508 18.64204984436663 0.3272997832465687 0.82206454763488 0.11754160075017295 1 
28 4.493620638434629 15.932917439021573 0.25304567582430204 0.7264989121300127 0.0542441892651081 1 
29 18.65041386877143 19.54405763021135 0.3380201876445989 0.2398011596288575 0.07303798357522168 1 
30 3.274807963809211 20.414368221448633 0.33743059890624677 0.5901471838032724 0.9918063493412209 1 
31 8.9358109985554 19.987638320140988 0.3334057930155664 0.541319250672478 0.001710205278228738 1 
32 12.337265111123344 11.390138449907203 0.25116038730183693 0.5135986647486473 1.8495789236805393E-4 1 
33 19.38856425396293 20.418805005819657 0.34265867758356405 0.24058966770604445 0.07255844902590536 1 
34 10.25777246394041 14.951633750837685 0.3211737955101463 0.42368251864708595 0.00585868211619095 1 
35 15.379735109973884 21.51631783580963 0.3074695516113801 0.3430253562042136 0.025280123435740265 1 
36 11.726313061265937 11.924742377403582 0.29786191242585536 0.2871835943478382 0.04755201681818216 1 
37 12.530996886737261 7.516062874928257 0.2947673890240566 0.138892121507544 0.15416608019068223 1 
38 17.218825082922734 6.3322819592993005 0.33341093695321355 0.005834892560734883 0.42383671101154075 1 
39 12.065399721104624 17.891057207922106 0.3416994523380429 0.11724086047009785 0.17829292655222995 1 
40 13.926039652651308 11.693965670498654 0.3135426712148294 0.24248442832060996 0.07141426721992145 1 
41 6.498753553783369 7.603026939915505 0.33996454547658755 0.9121596214694978 0.2169373807262423 1 
42 16.841324882492472 5.35769661563093 0.2749855838351477 0.2018067149318884 0.9013486822456104 1 
43 0.34967527320896435 22.091268807307777 0.27647990446201887 0.6515294710604952 0.02351409317785008 1 
44 1.5400520830123023 18.12911462496986 0.31140455901983494 0.7811224309976578 0.08651459664219446 1 
45 6.821267193107847 21.162137148739202 0.25078040640048305 0.5988902669983646 0.009876836812427126 1 
46 7.866182122077664 23.77714644574563 0.2804207363491151 0.5790049251075439 0.0062812320675348365 1 
47 8.74026936488489 8.383552107374713 0.2819381857075295 0.5999111107071776 0.010083915392382625 1 
48 6.167088991083553 23.77537641514752 0.3418307087080174 0.7528843834488435 0.9313345437218057 1 
49 9.0008123888572 18.739478057857717 0.2961235607916542 0.3866392609622561 0.013020182302370453 1 
50 14.059644373857 19.540434993165192 0.3143154799988834 0.22981749888746295 0.07928463767937605 1 
51 5.849112996631394 6.705345319729045 0.2737398757413277 0.9616611885444415 0.307987117641202 1 
52 0.7991730757786379 12.424536316935995 0.25600552402322757 0.8907001037790951 0.18798488993799628 1 
53 11.935752463286882 22.79168881243246 0.3074529279163383 0.4430531133578486 0.0032535333776737008 1 
54 10.892501886408391 12.781504942493624 0.28849291497028096 0.092075776976354 0.2108671096700434 1 
55 5.830926317105153 20.263015518333443 0.33106030823806604 0.6349125878857591 0.018545335851892164 1 
56 17.839342951345845 10.65842644035675 0.2685712342512925 0.0928141623255716 0.2098281653961328 1 
57 16.46606439763406 15.979650874619942 0.27722983573582016 0.24348353237089582 0.07081553868402135 1 
58 17.48525963343317 9.311107389413806 0.3055176391530371 0.06538680555420062 0.252792857680815 1 
59 14.083118366624184 21.120442876126774 0.28946456639860463 0.3649698099041947 0.018578305679219864 1 
60 2.9834989368637608 6.798963627581313 0.2515505634775615 0.9847405018150432 0.37741677969599574 1 
61 18.694184723073 8.489548042164994 0.28157214111148454 0.035027862665378884 0.3161497579482848 1 
62 3.5496881222454393 22.904518986523282 0.3007050266081639 0.6716993365280984 0.03040513435961545 1 
63 3.144979528834962 19.018658194597105 0.3143387095584945 0.4177479363949562 0.006811802622252672 1 
64 13.716695422945998 16.842393791267277 0.2973315252506441 0.8055552646195886 0.10422736291747858 1 
65 12.691030635405342 10.378384269694767 0.2535050867474087 0.2700634720363359 0.05600766548507269 1 
66 6.9602355058079315 22.21833090130705 0.32437334133691476 0.7351591131332424 0.05875155353204148 1 
67 17.38724207458039 14.51420091757037 0.3215501016381656 0.19088881926143597 0.1069983741224334 1 
68 9.924331392733746 18.947795352339128 0.34720179767492965 0.6737991919228672 0.0311782418797541 1 
69 18.99725692191019 23.357836543312292 0.3458011570156132 0.2780713442381574 0.051951261856769015 1 
70 13.764406214795379 8.535920841357308 0.27884373199973045 0.14225628332802975 0.15068719865752833 1 
71 9.64933399319892 16.381632766834432 0.3011748634959705 0.5196158087971128 3.849281244258651E-4 1 
72 2.8463343640412697 14.99730936559032 0.2937364856362489 0.7937591672480471 0.09539457287656916 1 
73 12.54607310003677 24.004919997620995 0.3131239484943533 0.4313454023800226 0.00473588235605138 1 
74 17.45666363847243 24.09843710267374 0.3005719986987792 0.5764834356122229 0.005884341396722226 1 
75 4.556748485558834 24.597939015856007 0.3174155922403125 0.5715241376481905 0.005142143910311647 1 
76 17.332861960739333 20.533005822009162 0.33028452079431436 0.2842415611483352 0.04894756838667591 1 
77 3.0332854599670203 17.297407851991903 0.31203862976270474 0.7489808532881087 0.06640049043394286 1 
78 12.605415037116723 14.17829019713044 0.25679996437568403 0.35882722439742487 0.0203436152528928 1 
79 16.77970630902389 24.642825041860426 0.3032426959765511 0.03643633212611369 0.3126267739848907 1 
80 3.786600138574478 9.664845081530043 0.3388653490616673 0.01228093517709733 0.6101367958870842 1 
81 16.31438780491868 23.85722705197348 0.2644243072246953 0.31928028473743153 0.033802204514632894 1 
82 10.960464377030487 14.25234858768926 0.30824315687403286 0.49575291995574255 1.803801427230356E-5 1 
83 19.115043657458237 5.697900594410737 0.3418278049844189 0.001428999099347017 0.46222491481252354 1 
84 7.639285863678561 24.60499883827421 0.2789789482747882 0.5203137572805354 4.1281915450680495E-4 1 
85 6.187768084870954 11.021260719812934 0.25492120420720543 0.7722291788367275 0.08060606324139469 1 
86 9.13776826292698 24.498059591353332 0.2745854473847434 0.5246595598003363 6.084641181294259E-4 1 
87 8.529345852978738 11.64982091741712 0.32849792471669437 0.6146699368836955 0.013326797969017756 1 
88 5.5077692632935875 5.668683126691154 0.26414862800053585 0.9939130564769743 0.42221894419864653 1 
89 2.4820362173598074 12.820969859048704 0.33626826452849956 0.8487870021632603 0.14174362933512846 1 
90 4.813535892275247 19.26980100194395 0.32793017166153915 0.6444489472216244 0.02132004256856085 1 
91 11.772709631459211 12.814107881552985 0.3367240896240672 0.9902462350808344 0.40172167589408525 1 
92 19.475875760776702 13.419419679447032 0.29045751275202697 0.12455470719275852 0.16978668695995203 1 
93 0.49428407748616165 17.718408983111566 0.2977344124732059 0.7934675291513329 0.0951829927809213 1 
94 14.316588467124927 5.93523879286811 0.33086117594101583 0.45509047322681156 0.9979790501667799 1 
95 10.01265450279361 13.374990536488406 0.26956850402354626 0.4976127967964309 5.698771611106768E-6 1 
96 4.613238714600577 9.254709126044002 0.3119059219886282 0.9306274944254305 0.24591347724667523 1 
97 9.655678537805624 5.634592556209455 0.3113193712551914 0.7851144288961391 0.08925706039515613 1 
98 18.601121065581022 12.15973115640541 0.33039614714446774 0.1139397464276029 0.18226193081153075 1 
99 17.968642244237326 7.516372694370392 0.26404924136691804 0.022900349245962848 0.3504141609296663 1 
100 8.026762752800133 16.68230493924279 0.34110836446058157 0.5871938875794748 0.007661472187298846 1 
100
Time=401 Lattice="20.0 0.00000000 0.00000000 0.00000000 25.0 0.00000000 0.00000000 0.00000000 0.000000000000000001" Properties=id:I:1:pos:R:2:radius:R:1:color:R:3
1 15.276089741330507 9.517735391096975 0.26779816540532636 0.1173245140461906 0.17819342385523596 1 
2 0.8338432131228056 22.833024422941136 0.3194498695982511 0.8200369753263446 0.11584334650566747 1 
3 8.98609361049272 22.427888277944653 0.3209755465582095 0.5317894888864886 0.0010115949279624892 1 
4 14.631912744125634 23.287201824003574 0.29130960521954735 0.3748398898776705 0.015918450223346814 1 
5 10.886222933042156 10.581129093465726 0.25420711828219145 0.41347855903837194 0.007542854398554288 1 
6 15.682914277725288 19.466651337592225 0.30945044631504987 0.31625185069098344 0.03498750809735085 1 
7 1.6359281323611163 9.067624510058868 0.30838997708266835 0.9506221050952144 0.28334423986527024 1 
8 5.39579945382845 16.63078854845976 0.2695170219293682 0.6827509260086049 0.0345946937958298 1 
9 18.88031347114268 10.892877604932702 0.26271881135834 0.005515416111855187 0.42593923915481086 1 
10 8.666061614208816 9.273627342379491 0.3169779042352593 0.9225068331243496 0.23262764547688725 1 
11 1.9075370553809723 5.796229568724168 0.28027084276341435 0.9976512469085146 0.4515930123804353 1 
12 5.0949221345473275 24.015074790679577 0.3097241825965211 0.0016605606288561114 0.4592838709200638 1 
13 17.060209456695684 18.21669727348881 0.2978367836517325 0.3393010813573023 0.02652787035870041 1 
14 7.710374873614898 20.045035600788847 0.30565302150241075 0.5754538117805188 0.005726065538764202 1 
15 5.80746462259526 18.878842676242435 0.2851332499920162 0.6804846279150868 0.03371114200921266 1 
16 12.75048472818655 17.688702239646606 0.31119872159100137 0.7683814000379992 0.07813340483792336 1 
17 15.628340436185828 13.389190224335369 0.2634860545245118 0.21816355842579432 0.08700094406791997 1 
18 16.449944544952185 12.007913979870171 0.3291698119221164 0.1587021924263362 0.134601852022468 1 
19 16.139035571258866 18.2934489500361 0.25944410572807347 0.2220938388476587 0.08434609878702098 1 
20 11.445770250008174 15.70905515957047 0.2559789740971398 0.42881029147718186 0.0050939226475025245 1 
21 1.5060970649094063 14.800418195636771 0.32466775581973467 0.8293640106542691 0.1238094253098112 1 
22 14.7045115192388 20.20157211067489 0.30966705989293314 0.7728103953290646 0.08098390460460891 1 
23 13.448795849593248 9.486001368519561 0.3064936935324227 0.1808396709449318 0.1151147127292853 1 
24 10.05441454523713 9.633304373991495 0.27033958299498306 0.1017519151171069 0.19767821301284288 1 
25 10.49910345265194 8.644835594053252 0.3320335020806175 0.5546588542023729 0.0029965697731214602 1 
26 5.154283023634544 17.562260994662523 0.297132499705049 0.6900374637329011 0.03752214931094666 1 
27 3.969109752343332 18.49991448527453 0.3272997832465687 0.8485162596319604 0.14148024214536237 1 
28 4.534376074232296 15.852687053876048 0.25304567582430204 0.7263940321574193 0.05419091282982419 1 
29 18.60188204430842 19.46440062279018 0.3380201876445989 0.23990137003450945 0.07297692955757668 1 
30 3.3345854002169717 20.630617753934473 0.33743059890624677 0.7042681783644748 0.9563710237379879 1 
31 8.943215586983575 19.89848988968435 0.3334057930155664 0.541456613914421 0.0017216147947508587 1 
32 12.337207040292133 11.278456963577772 0.25116038730183693 0.485206981708569 2.1888129919372945E-4 1 
33 19.3436654707673 20.344844062841332 0.34265867758356405 0.24048256655652267 0.07262346608767778 1 
34 10.24581060799077 14.870483429999837 0.3211737955101463 0.4303524235744778 0.0048745461016460045 1 
35 15.351534817119893 21.431027968897233 0.3074695516113801 0.3430499418499029 0.02527199445716166 1 
36 11.670619066506303 11.812654375204858 0.29786191242585536 0.27313640264563466 0.054429682097835 1 
37 12.466067172576727 7.453879526787182 0.2947673890240566 0.13889210494623938 0.1541660974834274 1 
38 17.131969594601067 6.320267501052815 0.33341093695321355 0.003696175129917323 0.4393162837383346 1 
39 11.916337172692801 17.84147627039697 0.3416994523380429 0.019101727324833617 0.3631173811689691 1 
40 13.8797390914697 11.61690685360452 0.3135426712148294 0.2424861519826934 0.07141323156294299 1 
41 6.57294545294163 7.552203190666767 0.33996454547658755 0.9128631387444922 0.2179644904164616 1 
42 16.752948096063697 5.423289457605878 0.2749855838351477 0.04087139785648469 0.6979922389735053 1 
43 0.3831980530251887 21.99275167225055 0.27647990446201887 0.6697955745033227 0.02971342473010502 1 
44 1.5908201291434294 18.05445894350003 0.31140455901983494 0.781204588220954 0.0865704660241558 1 
45 6.836338379780959 21.066189777849214 0.25078040640048305 0.5349410201550066 0.0012223690756296146 1 
46 7.884378818493537 23.660137219483758 0.2804207363491151 0.5748503479514491 0.005634320152028582 1 
47 8.784559351167665 8.195534634458259 0.2819381857075295 0.6279879407295651 0.016658415788786796 1 
48 6.307426232641354 23.91632654436107 0.3418307087080174 0.9268074298853142 0.7604523330567277 1 
49 8.981895134540865 18.64349968248996 0.2961235607916542 0.418386957523103 0.00670565450467181 1 
50 13.964803392590026 19.375706008488756 0.3143154799988834 0.269718928303987 0.05618626878099442 1 
51 5.9315271336346855 6.671020295594982 0.2737398757413277 0.9614648008294449 0.30751561726872284 1 
52 0.8694209703643945 12.36843596995957 0.25600552402322757 0.8907000057189816 0.1879847671488013 1 
53 11.925501471886376 22.70226943077508 0.3074529279163383 0.44305337701334385 0.0032535031523466817 1 
54 10.801316577423725 12.690278819112967 0.28849291497028096 0.2032831687347148 0.09755854830312488 1 
55 5.855124303402019 20.17665588855784 0.33106030823806604 0.6348926143858105 0.018539739351043583 1 
56 17.766130608727895 10.60626472701324 0.2685712342512925 0.09271321153566575 0.20996987752578417 1 
57 16.419942650674848 15.90248340194242 0.27722983573582016 0.2434833418888412 0.07081565253205835 1 
58 17.407083654529693 9.266641156313177 0.3055176391530371 0.06538623456149978 0.25279386154189387 1 
59 14.059037123791388 21.035696939385556 0.28946456639860463 0.36192285999026785 0.019443340066196968 1 
60 3.070658125097414 6.776922532476764 0.2515505634775615 0.9847407418792947 0.37741772900492115 1 
61 18.6108019209857 8.45657874284414 0.28157214111148454 0.035026688090764646 0.31615272857026966 1 
62 3.5805598313809908 22.820085326364726 0.3007050266081639 0.6716991655009279 0.030405071826488994 1 
63 3.0600320144779225 18.69901017664326 0.3143387095584945 0.3613423355836635 0.019610520412231935 1 
64 13.871510082794359 16.59397641595928 0.2973315252506441 0.7166298198724333 0.04936542393860066 1 
65 12.64953090575676 10.298133905214979 0.2535050867474087 0.27062561713236033 0.05571699055209256 1 
66 7.218489788945587 21.723508208733424 0.32437334133691476 0.7384490604981107 0.06052071090031064 1 
67 17.331663438383163 14.443538625428323 0.3215501016381656 0.19088900368437461 0.10699822906663459 1 
68 9.951589251281966 18.86371414894987 0.34720179767492965 0.6367171178127974 0.01905464998925116 1 
69 18.957354276209585 23.277276786648983 0.3458011570156132 0.2780753208723823 0.05194929216203226 1 
70 13.698942370907822 8.471953003587558 0.27884373199973045 0.1425181433993471 0.1504192193478734 1 
71 9.65286059899333 16.29180980448356 0.3011748634959705 0.5196157150931299 3.849244454435241E-4 1 
72 2.8991711924742285 14.924536681933182 0.2937364856362489 0.7937670490586075 0.09540029549269602 1 
73 12.53374339171959 23.915975462279842 0.3131239484943533 0.43134515718460703 0.004735916345639191 1 
74 17.464009240739298 23.98321898346944 0.3005719986987792 0.49339295643037084 4.365493048391622E-5 1 
75 4.56418166350678 24.480912178320878 0.3174155922403125 0.2696199639803423 0.05623763228099071 1 
76 17.294068790711254 20.451907281544408 0.33028452079431436 0.28424033248502345 0.048948156113039765 1 
77 3.0780553345664714 17.219438264796466 0.31203862976270474 0.7489633343429467 0.06639043120239824 1 
78 12.580033605750657 14.092051424689389 0.25679996437568403 0.35883184609752194 0.02034225501534298 1 
79 16.71824725404599 24.603026739772943 0.3032426959765511 0.12681401535854053 0.16723548736804228 1 
80 3.7688715389971708 9.655967895401128 0.3388653490616673 0.7067928167395658 0.044767388091630334 1 
81 16.27680096654005 23.758674547718087 0.2644243072246953 0.3240504250526438 0.031981039832952196 1 
82 10.959128464652578 14.154443493780573 0.30824315687403286 0.4906629365701026 8.718835530324709E-5 1 
83 19.025400164237677 5.6911086012884144 0.3418278049844189 0.001428999480143911 0.46222490978661146 1 
84 7.642855406791751 24.543529666595095 0.2789789482747882 0.5354049929741626 0.0012550887753344786 1 
85 6.2367151625602055 10.945853272018061 0.25492120420720543 0.7722291790923647 0.08060606340732912 1 
86 9.14220159625836 24.408273603066654 0.2745854473847434 0.5246571286304111 6.083440748099744E-4 1 
87 8.549963621964531 11.562316590440336 0.32849792471669437 0.6146699368767251 0.013326797967375348 1 
88 5.596384132912998 5.654667777695549 0.26414862800053585 0.9938036370544646 0.4215272784224825 1 
89 2.5447487525331494 12.75655473549927 0.33626826452849956 0.8487871244176417 0.1417437483581444 1 
90 4.838406136089294 19.18902560324248 0.32793017166153915 0.6502655635507847 0.023113996419726 1 