100
Time=1 Lattice="20.0 0.00000000 0.00000000 0.00000000 25.0 0.00000000 0.00000000 0.00000000 0.000000000000000001" Properties=id:I:1:pos:R:2:radius:R:1:color:R:3
1 13.361872212215491 12.217431903993981 0.3045913627929297 0.28379142481034036 0.04916316475419036 1 
2 7.939323825223495 15.932093097508666 0.25295297524084626 0.5988898749210507 0.009876757704657568 1 
3 18.134159363195064 19.45886597267926 0.29349832801236914 0.2522306709161495 0.06570705789140596 1 
4 9.502880229614135 17.679122478413678 0.3497018376079506 0.7088958046610121 0.045728558244051365 1 
5 2.215074183764495 5.61317782956459 0.3247082325540913 0.9979854134487219 0.4551610884130148 1 
6 1.5188951153814199 6.294942096102121 0.29706254234983287 0.99515180719875 0.43054002715367695 1 
7 9.566558275643184 10.844368337448834 0.321735340497167 0.5468514007451216 0.0021998932822331896 1 
8 9.10548470261645 5.287107641743394 0.2508371629529857 0.9803599842476023 0.36124018761311577 1 
9 19.207641207249697 16.936636681443225 0.31607362637977876 0.19255668834944917 0.10569223933411831 1 
10 13.459816217133291 7.080578036565412 0.2947524780868462 0.06834134524711633 0.24766925320736127 1 
11 4.942838218007587 21.703286700275477 0.287249530391386 0.6473979997824845 0.022219894030608756 1 
12 18.182959921580984 15.802893162784898 0.3011768956928966 0.03709392784567611 0.3110080203747897 1 
13 6.013976473215135 13.755472998258044 0.28575039183054585 0.7104338291706305 0.046438974843973246 1 
14 8.996645433900342 9.864511466510374 0.32739014397441585 0.6100886895693842 0.012270074294291666 1 
15 12.805077568476491 8.794080468194064 0.2509001044877109 0.19606864315072653 0.10297892962241967 1 
16 0.801633382478793 9.43976861163215 0.26805438442672436 0.9508916320600485 0.2839057239577459 1 
17 15.952346069091124 14.34681018739646 0.30245158591645344 0.23144807677261225 0.07824193602152518 1 
18 8.012656562186475 11.37220401781851 0.33490358984676644 0.6605890305353628 0.02649058797980336 1 
19 19.319448846909083 7.036635814203801 0.3157009273800628 0.011212907157995333 0.3947043311856489 1 
20 19.515149848552827 14.033970527359063 0.34356271206036265 0.13561646198853078 0.1576191634652369 1 
21 2.855972747102005 12.743300547991144 0.29438247841711235 0.8415709733696337 0.13485719211338565 1 
22 9.47727077976011 21.320264665291468 0.2584428199942692 0.5101995728134394 1.0404211033737676E-4 1 
23 3.993703437003861 7.203084157747553 0.2628722781739992 0.9703200470986192 0.3302971617881639 1 
24 12.810535781151858 5.279469087497222 0.3162586423001235 0.46917578736987225 0.9990489634452041 1 
25 5.99633611169373 23.12099574974683 0.2840161464466451 0.6312381098678164 0.017530769355886322 1 
26 8.987934199776424 20.40682885193325 0.31111925592944545 0.535346640886802 0.0012509498976269184 1 
27 15.574081944868011 9.971804968785769 0.31622789752683644 0.12469886200301505 0.16962285820873124 1 
28 8.924463667603368 17.968527685939403 0.256401596220067 0.2498774564640015 0.0670580717751138 1 
29 10.817057548431379 5.493962376292819 0.293704675707503 0.0598816014706024 0.2627326502109522 1 
30 12.02983555029284 23.457133838948618 0.32559350015123895 0.4434754265583914 0.00320530135956143 1 
31 11.084935046316032 23.362857237154554 0.30732469792043415 0.4614475399036548 0.0014885078350553305 1 
32 18.50771172462492 18.369709564162807 0.33366379862047496 0.2297149985026231 0.07935048084472629 1 
33 1.3941282949825902 21.521631126752705 0.2869849588650064 0.7340358137374161 0.058154735356068965 1 
34 16.627088776160864 8.250558341146283 0.3277698342660111 0.049810339927179925 0.2824470869799287 1 
35 0.3787025065640818 23.357403833810427 0.31507201879467156 0.7298342082450523 0.05595469068982395 1 
36 18.417927015513822 6.398057114380141 0.26954855284158535 0.006069964787706328 0.42232683658313946 1 
37 15.063840397400671 14.820695343168623 0.3070201228191365 0.2638495060636107 0.05928133212490383 1 
38 14.518600138068445 10.313658506058204 0.27696918218705063 0.1710453618825356 0.12345140278974875 1 
39 11.15389946029237 20.08682275448809 0.27039186015466843 0.27099293440856886 0.055527544262637174 1 
40 12.053099137382933 24.451569406432167 0.2506793490468434 0.4447441635729685 0.00306258689775718 1 
41 9.632010780854106 7.348807471540758 0.33582467815790934 0.3969921775791202 0.010725651070783715 1 
42 10.312715672548801 21.469542889927506 0.2946904767647922 0.4967666100960668 1.045491957618605E-5 1 
43 17.813208286441025 22.508275850484807 0.3490410773161631 0.28190637934882984 0.05007203617549677 1 
44 17.926485531244516 21.340622884429624 0.29367331289346327 0.27978566499266744 0.05110619668202332 1 
45 17.918075903626452 23.723556418746693 0.3257534793208541 0.5127584207603911 1.6280380537825323E-4 1 
46 8.07613039865848 7.568058891100779 0.27643373792704107 0.8094252807338814 0.1072456293779041 1 
47 4.90621201559706 17.20941835488248 0.32385099404557666 0.6968514123080218 0.0403811127985087 1 
48 9.673749066419035 8.937744491640286 0.2574882710481631 0.5488830341912369 0.002395288438444998 1 
49 6.103244694803983 6.955824482390137 0.3481916247404236 0.9490969387466686 0.28020022837052116 1 
50 11.429008054361876 14.547379700702647 0.34404638930790693 0.42053927159844035 0.0063543855741311495 1 
51 2.1293583313800712 22.780860723961446 0.3114095045707758 0.703947825123289 0.043485723522823094 1 
52 1.3124096952049442 23.69350657957859 0.34493351125754657 0.7160218349236723 0.04907365697243893 1 
53 14.166775167105012 20.571879374793788 0.2634644722304429 0.36786675814331316 0.01777514954490128 1 
54 1.8996211013020192 9.622956834267633 0.3496676438542181 0.9359642721442475 0.2551834290458742 1 
55 14.760343717157518 19.3571059965758 0.3276051559796181 0.3397098375847091 0.026389333066832554 1 
56 5.987565410654572 22.398898129496022 0.3214600567486621 0.5984976634509692 0.0097977863221142 1 
57 17.335616143301007 16.969543772307308 0.3406939738022054 0.236157949166671 0.07527965411101034 1 
58 12.8113715179048 17.439379179338115 0.2865840727107755 0.39874774612878594 0.010359334730050018 1 
59 7.1199758506917235 18.79474066176669 0.2614723843813185 0.6055609270595348 0.01127012504008762 1 
60 12.528723310576396 10.57473593317469 0.30639712301866606 0.2867878059624373 0.04773839394252277 1 
61 18.051971077569057 9.770786865012356 0.34665952206871053 0.06847612864096653 0.24743882236710973 1 
62 3.1609100445867386 23.15691060134136 0.2971727566625551 0.679144155334712 0.033194503449870905 1 
63 18.740633140747285 15.554791669850632 0.2874214278143066 0.49512674208429536 2.374920673781089E-5 1 
64 15.806273494923117 12.568383198121877 0.2594770979413095 0.19357454588484285 0.10490071998253436 1 
65 1.3729581917506501 20.55565485685524 0.2786786188091392 0.7439031191081626 0.06352403446545946 1 
66 11.690300829503883 19.765438917862 0.2935966712801933 0.5885020600481337 0.007894944785936442 1 
67 15.450021170920172 13.498712501890608 0.2622061461673057 0.22566101027002833 0.08198311192735463 1 
68 11.810505641027415 6.545640319569148 0.29379231272559253 0.11192918520787298 0.1847206909634337 1 
69 11.780423406966937 15.611187718481338 0.3381046032439177 0.4139575025202644 0.0074589472668804 1 
70 8.388995290676306 12.86179779534945 0.3230302770026963 0.608295221895735 0.01186872163878544 1 
71 6.344462753429626 20.224540213659417 0.2948773802361904 0.6197436030402155 0.014550239951704902 1 
72 7.246079006605947 15.408384304365432 0.2952525062258922 0.6242583205403894 0.015686186675950953 1 
73 9.38555241591931 16.62238696344497 0.32824580352604027 0.5628164047491045 0.0039615949400725325 1 
74 7.148598714720717 24.207824755387325 0.3159315589593603 0.5759230873566148 0.005797931199959638 1 
75 8.395751247421773 15.207016930685718 0.33548907616655077 0.47556148211693355 5.975982800252577E-4 1 
76 12.93604377222181 23.11635971073431 0.31816277529578413 0.4230694502856601 0.005953756698171553 1 
77 13.248429513881522 24.38032176466153 0.31334243927860383 0.38963070215173135 0.012333497057179288 1 
78 3.0551574583008287 20.407786642820486 0.25323999285171617 0.7049659767228872 0.043941946254610176 1 
79 5.637438088008489 19.025030838179813 0.30146891672967163 0.6515677171004969 0.023526257666863948 1 
80 13.840201061068523 24.818847284183377 0.2567175261066636 0.48753420039618933 1.5542031523674282E-4 1 
81 1.358827389324273 19.488088260790967 0.2936946649819719 0.757942578674589 0.07167112389344626 1 
82 12.357580574041894 18.129319846516648 0.27636829193067725 0.3958111458779785 0.01097578518365766 1 
83 9.991737299368028 8.047745124169186 0.34933475337688846 0.9997039044899569 0.4827951216949382 1 
84 1.1992656583303059 24.663477649566055 0.26300673999617774 0.7069808439677445 0.04485284771801523 1 
85 1.5458668280510084 17.613631078620802 0.3361171754866249 0.7806223367812045 0.0861750320492295 1 
86 7.939202361862558 10.358925984452387 0.34246895838609587 0.6793258670317479 0.0332642788329654 1 
87 17.7846300823941 24.291589553568937 0.30383260211459623 0.24925238295214647 0.9325802035979258 1 
88 18.011150759558415 5.520359446654054 0.2935566530634337 0.0013193141562070076 0.4637016038045176 1 
89 18.23847068084339 23.086763362921054 0.34860281527109616 0.5297069553294581 8.832833844837351E-4 1 
90 11.720193974039418 16.64905185067906 0.296695040528368 0.4221013848933246 0.006105471011814079 1 
91 10.877781154960012 7.298295475329109 0.2765915799273305 0.30703203997135 0.038737204619339216 1 
92 6.875568290810297 14.459800058117793 0.31847772883853315 0.6598283366201724 0.02623328228628291 1 
93 9.12290639506165 14.952951346087742 0.3034096541993553 0.6406222765025699 0.020181935155381192 1 
94 17.24028002291028 23.09707962395361 0.29303771990612726 0.2774863972612247 0.05224147512726185 1 
95 4.00980703927102 20.593135336748396 0.34203563660748637 0.6849341313690868 0.035457895283149465 1 
96 9.133339298953544 15.859775845806666 0.3199685704726181 0.5232634653100996 5.414820210132842E-4 1 
97 3.7701573537951565 10.845521543627855 0.29374307704346564 0.8673108789707802 0.1607615614501905 1 
98 18.957713929760637 11.185265884735687 0.34581163901749407 0.08709720395308995 0.21802255229071277 1 
99 4.84912295215156 16.18778259297354 0.2895614716523608 0.7111269993605059 0.0467612217152763 1 
100 7.253173431280666 12.888252693571197 0.3402252162346668 0.6679310376464835 0.029044411228643208 1 
100
Time=2001 Lattice="20.0 0.00000000 0.00000000 0.00000000 25.0 0.00000000 0.00000000 0.00000000 0.000000000000000001" Properties=id:I:1:pos:R:2:radius:R:1:color:R:3
1 13.240781282398332 11.964933812781943 0.3045913627929297 0.2837914284092391 0.049163163028260515 1 
2 8.01217765861002 15.569557990198039 0.25295297524084626 0.5982164387057476 0.00974136298484235 1 
3 17.845889781538748 18.953678786823176 0.29349832801236914 0.2521543520227947 0.0657506076241911 1 
4 9.654633872007008 17.175840026478372 0.3497018376079506 0.60667323358233 0.011511697952663713 1 
5 2.49492712250324 5.587785749061675 0.3247082325540913 0.997919898169114 0.4544393260886188 1 
6 1.8150561684276925 6.253579570640521 0.29706254234983287 0.9952403206956904 0.43117395291584937 1 
7 9.585768682778845 10.640878657958561 0.321735340497167 0.5471591551698485 0.002228954152949769 1 
8 9.140256248001673 5.277063299041334 0.2508371629529857 0.9803598596176255 0.361239756168652 1 
9 18.882047020590555 16.519049620890197 0.31607362637977876 0.19255683825936276 0.10569212244881493 1 
10 13.335299157742607 7.007790431018172 0.2947524780868462 0.0683404832490857 0.24767072782103317 1 
11 5.123103839736529 21.1188501954352 0.287249530391386 0.6473368796606741 0.02220104239140913 1 
12 17.73948776427097 15.493316841777903 0.3011768956928966 0.1250256061839795 0.16925205369903207 1 
13 6.1562491295870565 13.448642519981867 0.28575039183054585 0.7102110266570867 0.046335670046923794 1 
14 9.035279451358669 9.693296795885386 0.32739014397441585 0.6100189195680086 0.012254331298484966 1 
15 12.703465763358176 8.661346450870958 0.2509001044877109 0.19606866299906334 0.10297891442793233 1 
16 1.1259456457145167 9.28428447818012 0.26805438442672436 0.9508279930993407 0.28377298818597907 1 
17 15.744750419863603 14.020381415012366 0.30245158591645344 0.23195064941704757 0.07792234641945628 1 
18 8.086142791764537 11.155958957968847 0.33490358984676644 0.6612003140022833 0.02669834273946886 1 
19 18.99053047851533 6.965806645886907 0.3157009273800628 0.011194824523489966 0.39478830660340913 1 
20 19.178790143402704 13.717920471092173 0.34356271206036265 0.13561763284645584 0.15761791736777497 1 
21 3.1093804957299347 12.472405116184277 0.29438247841711235 0.8415709746552299 0.13485719331599 1 
22 9.488601627393876 20.74857265932743 0.2584428199942692 0.5095985126118945 9.21399341281548E-5 1 
23 4.207308253786556 7.1260103785499815 0.2628722781739992 0.9703200472782781 0.3302971622860766 1 
24 12.720824855653264 5.596813335075133 0.3162586423001235 0.21747587846081456 0.9125289332259152 1 
25 6.140795576502672 22.562716941963693 0.2840161464466451 0.6214555219362802 0.014975715874776252 1 
26 9.026152251911908 19.86658044826257 0.31111925592944545 0.5352077718533609 0.001241127596589342 1 
27 15.376316296119402 9.79763624510668 0.31622789752683644 0.12485344015106442 0.16944734362962838 1 
28 8.835508806928514 17.579847898295245 0.256401596220067 0.45090630010166527 0.002416028563728523 1 
29 10.784988422933143 5.476673461149592 0.293704675707503 0.05988774194539381 0.26272126030746934 1 
30 11.95649985721433 22.81260273768483 0.32559350015123895 0.44346803204924046 0.003206142751730201 1 
31 11.03470814960171 22.719558342176484 0.30732469792043415 0.4606705793667201 0.0015492033583951459 1 
32 18.20681728144461 17.901331709754146 0.33366379862047496 0.22979500252240237 0.07929908564619037 1 
33 1.6987412304927416 20.946757680170947 0.2869849588650064 0.7341830523231941 0.05823275584920046 1 
34 16.391765857619156 8.136839185224451 0.3277698342660111 0.049810346808447814 0.28244707274028696 1 
35 0.7119674193624504 22.71273287717841 0.31507201879467156 0.7293635127488454 0.055711378696786495 1 
36 18.12061607871718 6.351442228799051 0.26954855284158535 0.005994938686382123 0.4228054445149879 1 
37 14.880324169986855 14.47867538292287 0.3070201228191365 0.26331285302759405 0.05956930799720289 1 
38 14.356323259579183 10.127995531021105 0.27696918218705063 0.170844244634632 0.12362719451340004 1 
39 11.004815761899822 19.622069924029972 0.27039186015466843 0.3863133340972059 0.013096167610167131 1 
40 11.977631656970761 23.77362733669125 0.2506793490468434 0.4445855646403561 0.0030802475713288535 1 
41 9.607796527389135 7.1882478489198585 0.33582467815790934 0.451005252258855 0.002406275467845609 1 
42 10.309397407636174 20.895349776600312 0.2946904767647922 0.4974814534512083 6.343116953577699E-6 1 
43 17.44081202951067 21.715642994874298 0.3490410773161631 0.2899061417717115 0.04628139697081868 1 
44 17.64588717900676 20.767673134293766 0.29367331289346327 0.2805714449572888 0.050721568254308624 1 
45 17.606115194242893 23.019294071877063 0.3257534793208541 0.26681816042040096 0.05770345955425543 1 
46 8.14691017883147 7.4782171832202184 0.27643373792704107 0.8094218040246948 0.10724289033283763 1 
47 5.088049742083716 16.785079869931582 0.32385099404557666 0.6970406189936197 0.04046219473626417 1 
48 9.68602895182959 8.80718581825791 0.2574882710481631 0.5442993669860154 0.001966300252042863 1 
49 6.243048281556292 6.887400954074818 0.3481916247404236 0.9490969355315911 0.28020022180144527 1 
50 11.374907394158981 14.211463745456708 0.34404638930790693 0.42044854028446066 0.006368998889730471 1 
51 2.407470932349227 22.158152498347437 0.3114095045707758 0.7038394014751941 0.043437300684523006 1 
52 1.6269016720445681 23.037644211952564 0.34493351125754657 0.716364861311873 0.049238148475834354 1 
53 14.017509096547364 20.02713777573124 0.2634644722304429 0.3678617489713037 0.017776522123738536 1 
54 2.187451831895652 9.461386123020565 0.3496676438542181 0.9360498127448783 0.255335820347243 1 
55 14.590343896154158 18.85479725219225 0.3276051559796181 0.33971541801212213 0.026387444447498576 1 
56 6.130643700805998 21.714623571708067 0.3214600567486621 0.6051235002657464 0.011175849929775217 1 
57 17.075481076898082 16.55083069616107 0.3406939738022054 0.23611321000869706 0.07530744994986555 1 
58 12.71848320975481 16.990660122508366 0.2865840727107755 0.3985410811325079 0.010402116240031456 1 
59 7.224214001047731 18.31213736281105 0.2614723843813185 0.6055620063642987 0.0112703581607273 1 
60 12.436779551567202 10.379706624077082 0.30639712301866606 0.2867877589940413 0.04773841608509688 1 
61 17.76679818471852 9.603881449069956 0.34665952206871053 0.06847636643688193 0.24743841607147815 1 
62 3.404640486635673 22.522061531558187 0.2971727566625551 0.6792783063126082 0.03324600817381046 1 
63 18.585104337703758 15.117132417131064 0.2874214278143066 0.26626232202535355 0.05799694809309236 1 
64 15.600117780358595 12.30242956806175 0.2594770979413095 0.1937920666205306 0.10473211421179884 1 
65 1.6781924604512468 20.009295748157907 0.2786786188091392 0.7438111757293521 0.06347266913803556 1 
66 11.732927133313801 19.185824468545785 0.2935966712801933 0.5063014788106374 3.971021210186221E-5 1 
67 15.254186980282668 13.20045024657073 0.2622061461673057 0.22547375958180438 0.08210606211402033 1 
68 11.743837208403269 6.491461594024277 0.29379231272559253 0.11201832845379145 0.18461099806079168 1 
69 11.715462957202506 15.238868799829923 0.3381046032439177 0.4141796759459555 0.007420187198806549 1 
70 8.450133380769897 12.58673496221738 0.3230302770026963 0.6087105320435218 0.011961046408368703 1 
71 6.475839049251523 19.69193838982249 0.2948773802361904 0.6197472267785569 0.01455113381650086 1 
72 7.339757451269887 15.042230998239521 0.2952525062258922 0.6235627857504342 0.015508268411531856 1 
73 9.426840569897696 16.262265175800344 0.32824580352604027 0.5519471643363334 0.002705829395302506 1 
74 7.251833139389636 23.535850627241306 0.3159315589593603 0.5759241582315516 0.0057980957171145375 1 
75 8.396582205355278 14.851914334386247 0.33548907616655077 0.5193481388592783 3.7449072061773725E-4 1 
76 12.837388708679343 22.479588390103043 0.31816277529578413 0.423874534180531 0.00582906453963844 1 
77 13.036320724841946 23.664742067944932 0.31334243927860383 0.3584229464157648 0.02046278778554983 1 
78 3.297501746033295 19.867957914956555 0.25323999285171617 0.7045620295460023 0.04376061539141485 1 
79 5.793521715680176 18.534352616778396 0.30146891672967163 0.6515627088851036 0.02352466456760921 1 
80 13.81129722787595 23.62125872943071 0.2567175261066636 0.47793542143913625 4.870828767973845E-4 1 
81 1.6645989629344744 18.980245638163996 0.2936946649819719 0.7578690658618206 0.07162686257008127 1 
82 12.26270966055479 17.683552335214006 0.27636829193067725 0.39602681402642625 0.010929885805210315 1 
83 10.038343273097327 8.01234623718878 0.34933475337688846 0.7711241466437123 0.0798908509604691 1 
84 1.5100879407318086 23.98018888272014 0.26300673999617774 0.7070892035147506 0.04490214042732943 1 
85 1.84510797581364 17.172349525040303 0.3361171754866249 0.780622327139695 0.08617502551114442 1 
86 8.013412801464003 10.165162771873266 0.34246895838609587 0.678271465070789 0.03286052966858555 1 
87 17.419607166180157 23.982783907001853 0.30383260211459623 0.22894951663795793 0.07984332033251768 1 
88 17.72614818482834 5.499438003140199 0.2935566530634337 0.0013674201908309147 0.46304664625703645 1 
89 18.202583381219153 22.300489473870087 0.34860281527109616 0.4275881508082117 0.0052712621075811095 1 
90 11.656332861481712 16.244491715350005 0.296695040528368 0.4219665102681285 0.006126762741423819 1 
91 10.844044663511786 7.217621071648618 0.2765915799273305 0.3071966832389277 0.03866836110458499 1 
92 6.98789199305999 14.126544348957337 0.31847772883853315 0.6595474011533136 0.026138599604036528 1 
93 9.220022785765604 14.569206064145721 0.3034096541993553 0.6089517467918052 0.012014839497127339 1 
94 16.943767425103804 22.48200371255091 0.29303771990612726 0.2871514006034568 0.04756716107810005 1 
95 4.22693259022227 20.048399129229136 0.34203563660748637 0.6853495539743402 0.035623490213476494 1 
96 9.155779987286412 15.44656877532415 0.3199685704726181 0.5304078721526306 9.254952302719666E-4 1 
97 3.991582822205148 10.64101894102942 0.29374307704346564 0.8673108777715715 0.1607615601517457 1 
98 18.640856471065515 10.968879371659506 0.34581163901749407 0.08709700469801052 0.2180228440624219 1 
99 5.03264478808372 15.793581864549646 0.2895614716523608 0.7109166547559999 0.046663298698926936 1 
100 7.351455552443548 12.612310199269347 0.3402252162346668 0.6675637943517283 0.0289136227585734 1 
100
Time=4001 Lattice="20.0 0.00000000 0.00000000 0.00000000 25.0 0.00000000 0.00000000 0.00000000 0.000000000000000001" Properties=id:I:1:pos:R:2:radius:R:1:color:R:3
1 12.94081950099381 11.339455267716454 0.3045913627929297 0.28379143535367546 0.04916315969790569 1 
2 8.189365566511063 14.688414336616127 0.25295297524084626 0.5996468179942491 0.010030091063113367 1 
3 17.131493081018263 17.703140146361555 0.29349832801236914 0.25173930136099043 0.06598775880020291 1 
4 9.841778125146696 16.058408838671586 0.3497018376079506 0.5715871211880686 0.005151251310054561 1 
5 3.19076272099121 5.522344814613106 0.3247082325540913 0.9976618529240918 0.45170217246956557 1 
6 2.546100946652009 6.15365848451983 0.29706254234983287 0.9955742282335561 0.4336209045654037 1 
7 9.634101203653257 10.13807410106549 0.321735340497167 0.5487964240557005 0.0023867877564179296 1 
8 9.22639029758399 5.252181674545603 0.2508371629529857 0.9803584812739702 0.3612349847109697 1 
9 18.075502685098783 15.484619931011455 0.31607362637977876 0.19255958236281467 0.10568998287759279 1 
10 13.026868124280648 6.827518595263664 0.2947524780868462 0.06828524236491973 0.24776525211604195 1 
11 5.569040367539912 19.67080871313661 0.287249530391386 0.6468750496426944 0.022058874135677586 1 
12 16.885696604756628 14.61698643116734 0.3011768956928966 0.1675828468481242 0.12650456992032377 1 
13 6.50772666308953 12.687823424290029 0.28575039183054585 0.7089405826716032 0.04574915199545204 1 
14 9.131051004031923 9.268028667094747 0.32739014397441585 0.6095748200050524 0.01215436988647689 1 
15 12.45175677234452 8.332542574691756 0.2509001044877109 0.19606879084093376 0.10297881656124708 1 
16 1.928090783563276 8.89891991797711 0.26805438442672436 0.9504940761332514 0.28307815377687695 1 
17 15.234249769752987 13.212425312501589 0.30245158591645344 0.2341660236253379 0.0765235579104363 1 
18 8.268497091155224 10.624467619880518 0.33490358984676644 0.6635297574421903 0.027498128648257736 1 
19 18.17660340430694 6.790951909647318 0.3157009273800628 0.01109375722582584 0.39525895849076026 1 
20 18.345581502655403 12.934988298736563 0.34356271206036265 0.1356380882868896 0.15759614883478967 1 
21 3.7371127138758022 11.80135306738996 0.29438247841711235 0.8415709783948799 0.1348571968142266 1 
22 9.513394610307772 19.33349354237938 0.2584428199942692 0.5079187854488856 6.271109566702293E-5 1 
23 4.736442125845307 6.935086089221913 0.2628722781739992 0.970320045276652 0.3302971567387041 1 
24 12.476962470210708 5.788188096240519 0.3162586423001235 0.04053068689755274 0.6972002797086385 1 
25 6.497526532656866 21.089196833506872 0.2840161464466451 0.6153126771073829 0.013478688546607998 1 
26 9.119908746776835 18.526454088148103 0.31111925592944545 0.534458333812606 0.0011887899907832011 1 
27 14.887346795974395 9.365891402223177 0.31622789752683644 0.12567254159557606 0.16852005507952028 1 
28 8.81453818754978 16.517269169223162 0.256401596220067 0.511249556830202 1.265685484734269E-4 1 
29 10.705533246524293 5.433829451812133 0.293704675707503 0.05993037203225682 0.2626422056465554 1 
30 11.774538536163728 21.215958905861058 0.32559350015123895 0.44322225829291173 0.0032341718207227754 1 
31 10.904466407186446 21.125382213821705 0.30732469792043415 0.4576158297777018 0.001799656649488779 1 
32 17.461755300570218 16.740200366101817 0.33366379862047496 0.23022804774873484 0.07902126683341698 1 
33 2.453364276477784 19.525437462163158 0.2869849588650064 0.7348305615068528 0.058576612103100945 1 
34 15.808832704654606 7.855138237061399 0.3277698342660111 0.04981042022063492 0.2824469208260231 1 
35 1.5334441716810552 21.114414771847795 0.31507201879467156 0.7276220436560701 0.05481666109137223 1 
36 17.384370983474046 6.237753063503998 0.26954855284158535 0.005688162184289136 0.424794900470418 1 
37 14.42318740334804 13.632781864334685 0.3070201228191365 0.26098337146298417 0.06082913201944029 1 
38 13.953408841852783 9.668378764388304 0.27696918218705063 0.169785215915424 0.12455600101749287 1 
39 10.789747586091416 18.37837385678909 0.27039186015466843 0.43093295913507046 0.0047932311991665255 1 
40 11.787688395809933 22.097505652323054 0.2506793490468434 0.4419588031283119 0.0033802063291255013 1 
41 9.598515206970015 6.889359281787361 0.33582467815790934 0.5115004608954441 1.3227809830290704E-4 1 
42 10.305356623167086 19.47375262517986 0.2946904767647922 0.4997788138053787 4.8923335105310883E-8 1 
43 16.656554988408747 20.036377941077937 0.3490410773161631 0.28268354295028864 0.04969614981064069 1 
44 16.958681079503762 19.323614717063823 0.29367331289346327 0.2927364404259991 0.04498152029536806 1 
45 16.86595071327405 21.482172036359994 0.3257534793208541 0.2927438858226381 0.04497812894751935 1 
46 8.322229422298403 7.255668229504172 0.27643373792704107 0.8093953977119501 0.1072220883569645 1 
47 5.5386390848399705 15.736568424157255 0.32385099404557666 0.6978947587439026 0.04082937325903285 1 
48 9.707532907692215 8.500230520409655 0.2574882710481631 0.5241028860131062 5.812870087473221E-4 1 
49 6.589364495765552 6.717904730624264 0.3481916247404236 0.9490969112679055 0.28020017222566573 1 
50 11.240048038998259 13.376825727679464 0.34404638930790693 0.4199614421032297 0.006447744154881474 1 
51 3.0957136196215305 20.61455871040035 0.3114095045707758 0.7033111417444771 0.043201817382602536 1 
52 2.4100385208261286 21.411256043357522 0.34493351125754657 0.7175440702260122 0.04980606677843835 1 
53 13.647722959039884 18.677785180127994 0.2634644722304429 0.3678296985652555 0.01778530567946318 1 
54 2.901684482453134 9.061354243596734 0.3496676438542181 0.9364945472695757 0.2561301367451727 1 
55 14.169256474767787 17.610435788319386 0.3276051559796181 0.3397511230272414 0.026375362307903494 1 
56 6.486812654979886 20.110453669110985 0.3214600567486621 0.6107242322705723 0.01241396206608586 1 
57 16.430659290967036 15.514366063063635 0.3406939738022054 0.2353967152970861 0.07575348943753385 1 
58 12.487777691927182 15.880162093981225 0.2865840727107755 0.39807175197972267 0.010499609545082333 1 
59 7.482438347685886 17.11664750290082 0.2614723843813185 0.6055692886368415 0.011271931134796298 1 
60 12.20901966503091 9.896587265207073 0.30639712301866606 0.28678735974762815 0.04773860430431093 1 
61 17.06037532559925 9.19042455564701 0.34665952206871053 0.06847824776174738 0.24743520169028288 1 
62 4.009636290848772 20.949889515955537 0.2971727566625551 0.6799735993265599 0.033513661994863 1 
63 17.955486595575966 14.141697121479943 0.2874214278143066 0.20917133465907206 0.09328303770802165 1 
64 15.089955940170364 11.642294381106277 0.2594770979413095 0.19488354805824637 0.10388896663375363 1 
65 2.4342637703146255 18.654463938294544 0.2786786188091392 0.7434774926994974 0.0632864662633339 1 
66 11.684293398201365 17.84243399076163 0.2935966712801933 0.46712267878750485 0.0010820891670750843 1 
67 14.767344083455518 12.46092423719134 0.2622061461673057 0.22451232366534762 0.08273924197483679 1 
68 11.578720516265193 6.357242701698205 0.29379231272559253 0.11178438374639121 0.18489900778190055 1 
69 11.555580041287463 14.315972174574181 0.3381046032439177 0.4152898803129045 0.007228049070771514 1 
70 8.603245967031139 11.905345047365198 0.3230302770026963 0.6108714664176769 0.01244742033869417 1 
71 6.801302009774608 18.37263846385761 0.2948773802361904 0.6197709757932496 0.014556992678303349 1 
72 7.567931184662959 14.137496531680982 0.2952525062258922 0.6206541093631687 0.014775736495194869 1 
73 9.506122205415828 15.302962308834394 0.32824580352604027 0.5310675250532524 9.661245095023419E-4 1 
74 7.507576726891873 21.871273686730586 0.3159315589593603 0.5759366537061352 0.005800015556541638 1 
75 8.47063448658574 13.931261172680587 0.33548907616655077 0.5531990679043366 0.002838196183466035 1 
76 12.598848819311414 20.8992094319787 0.31816277529578413 0.42723305311875304 0.0053233667924248995 1 
77 12.603937533752076 21.94887823186895 0.31334243927860383 0.3921409538455778 0.011772157530259009 1 
78 3.8947309728056014 18.53011299469733 0.25323999285171617 0.702904862978458 0.04302120773531165 1 
79 6.18013395916474 17.318824577044502 0.30146891672967163 0.6515294050382392 0.02351407218181434 1 
80 13.625133933730998 21.586635068074266 0.2567175261066636 0.4375304667142697 0.0039177916805894775 1 
81 2.4220271363945973 17.72089120755374 0.2936946649819719 0.757464809742756 0.07138377102106075 1 
82 12.028366409716813 16.578296959543 0.27636829193067725 0.3965495299014308 0.010819051642048272 1 
83 10.111884154039744 7.80913522785055 0.34933475337688846 0.6253904764823032 0.015978070323729054 1 
84 2.2794957537012324 22.291259358268594 0.26300673999617774 0.7075185403036569 0.04509775178590342 1 
85 2.586377014287882 16.07922303961997 0.3361171754866249 0.7806222271268084 0.08617495769058403 1 
86 8.19555910480537 9.681577028673095 0.34246895838609587 0.6736442145121854 0.031120818582818566 1 
87 16.67308081237335 22.573109059584876 0.30383260211459623 0.2843809280026884 0.04888092947535666 1 
88 17.019050727366125 5.445228054927141 0.2935566530634337 0.0015891336282278234 0.4601677482115378 1 
89 17.75550588437876 20.565799090463727 0.34860281527109616 0.34417145620451717 0.02490267845568811 1 