10
Time=1 Lattice="20.0 0.00000000 0.00000000 0.00000000 25.0 0.00000000 0.00000000 0.00000000 0.000000000000000001" Properties=id:I:1:pos:R:2:radius:R:1:color:R:3
1 12.974924305130047 23.573442708124325 0.2905526160113071 0.41879165259300877 0.00663887028726573 1 
2 11.463235383224925 24.16156499320124 0.3149783095391809 0.45979225369215815 0.0016192849468950055 1 
3 10.954853412283327 15.348241026452033 0.29478063183628583 0.4501285655754661 0.002493376899925681 1 
4 2.235983753878774 14.340403444769683 0.34124138762302775 0.8216095035837346 0.11715887472134895 1 
5 4.555239763117752 24.471278154101356 0.3320492450149629 0.6365386502675188 0.019003953256241213 1 
6 6.457006801846234 12.534783260297516 0.3269108213041866 0.7167921412402528 0.04944349133935899 1 
7 7.49267532374943 20.250395604169647 0.2539181019311847 0.5837110454920332 0.007057345259480763 1 
8 12.196987060949128 18.628263036906294 0.3228401514394577 0.41751559525988063 0.0068506078532913905 1 
9 18.650409045500137 13.120931664135819 0.3009725446995346 0.13390299891340302 0.15945193320854073 1 
10 19.03092242367039 14.362261353904422 0.25952571965742594 0.15118987802261702 0.14176613950364325 1 
10
Time=201 Lattice="20.0 0.00000000 0.00000000 0.00000000 25.0 0.00000000 0.00000000 0.00000000 0.000000000000000001" Properties=id:I:1:pos:R:2:radius:R:1:color:R:3
1 12.951740904570702 23.432597511375985 0.2905526160113071 0.41879189587137877 0.00663883024316253 1 
2 11.45175686061726 24.01928749190097 0.3149783095391809 0.45979201304642925 0.001619304361473617 1 
3 10.9406160977318 15.206212661583214 0.29478063183628583 0.4501285655792783 0.0024933768995435424 1 
4 2.3277969475058855 14.231109826342465 0.34124138762302775 0.8216095035649982 0.11715887470560926 1 
5 4.594218864779571 24.333963234347767 0.3320492450149629 0.6365386502677864 0.019003953256317208 1 
6 6.518896698196575 12.406158230529051 0.3269108213041866 0.7167921412441272 0.04944349134122317 1 
7 7.5165731823155815 20.10967016258786 0.2539181019311847 0.5837110455055874 0.007057345261782533 1 
8 12.173439384219026 18.487478575855388 0.3228401514394577 0.41751559526439086 0.006850607852536994 1 
9 18.545867456165816 13.02368563614169 0.3009725446995346 0.13390341860898053 0.15945148202670345 1 
10 18.931371484834848 14.260020978543762 0.25952571965742594 0.1511894746288936 0.14176653228609037 1 
10
Time=401 Lattice="20.0 0.00000000 0.00000000 0.00000000 25.0 0.00000000 0.00000000 0.00000000 0.000000000000000001" Properties=id:I:1:pos:R:2:radius:R:1:color:R:3
1 12.893335866432162 23.07776934047812 0.2905526160113071 0.41879274429660285 0.006638690591648566 1 
2 11.422838923540784 23.660851254758484 0.3149783095391809 0.4597911741462827 0.001619372042346079 1 
3 10.90474836325042 14.848403914591826 0.29478063183628583 0.4501285655815218 0.002493376899318611 1 
4 2.559099784790321 13.955768962566411 0.34124138762302775 0.8216095035639429 0.11715887470472275 1 
5 4.692418006461063 23.988028959702838 0.3320492450149629 0.6365386502713406 0.019003953257326123 1 
6 6.674814470572206 12.08211619304428 0.3269108213041866 0.7167921412438206 0.049443491341075674 1 
7 7.576778500015706 19.755143839842106 0.2539181019311847 0.5837110455058326 0.007057345261824166 1 
8 12.114116271452787 18.132803566741472 0.3228401514394577 0.41751559526582044 0.0068506078522979075 1 
9 18.282496496792568 12.778693150727989 0.3009725446995346 0.13390466496139797 0.15945014217742837 1 
10 18.680576855169434 14.002452097621072 0.25952571965742594 0.15118827878141172 0.14176769668199118 1 
10
Time=601 Lattice="20.0 0.00000000 0.00000000 0.00000000 25.0 0.00000000 0.00000000 0.00000000 0.000000000000000001" Properties=id:I:1:pos:R:2:radius:R:1:color:R:3
1 12.81133168978693 22.57956103569189 0.2905526160113071 0.4187946139247978 0.00663838285454621 1 
2 11.382234500239056 23.157578009479835 0.3149783095391809 0.4597893264628836 0.0016195211149503397 1 
3 10.854387130990022 14.34601117434625 0.29478063183628583 0.4501285655833591 0.002493376899134425 1 
4 2.8838678829074222 13.569167874087762 0.34124138762302775 0.8216095035648705 0.11715887470550196 1 
5 4.830297631523615 23.50230894965526 0.3320492450149629 0.6365386502705681 0.019003953257106798 1 
6 6.89373577301481 11.627134674184903 0.3269108213041866 0.7167921412431923 0.04944349134077336 1 
7 7.661311689299551 19.257359891650694 0.2539181019311847 0.5837110455055392 0.007057345261774317 1 
8 12.030821770038061 17.634810850731164 0.3228401514394577 0.41751559526623283 0.006850607852228963 1 
9 17.91269686604427 12.434695447859568 0.3009725446995346 0.1339067049112121 0.15944794921916317 1 
10 18.328445824529236 13.640812773768547 0.25952571965742594 0.15118632793009296 0.14176959624131935 1 
10
Time=801 Lattice="20.0 0.00000000 0.00000000 0.00000000 25.0 0.00000000 0.00000000 0.00000000 0.000000000000000001" Properties=id:I:1:pos:R:2:radius:R:1:color:R:3
1 12.713517438009816 21.985279541153112 0.2905526160113071 0.4187984334437323 0.006637754191904099 1 
2 11.333796958796507 22.557257601866258 0.3149783095391809 0.4597855543840308 0.0016198254707554538 1 
3 10.79431450715457 13.746739696099601 0.29478063183628583 0.450128565584672 0.0024933768990028637 1 
4 3.271262529873848 13.108016692501966 0.34124138762302775 0.8216095035641395 0.1171588747048879 1 
5 4.994765228509429 22.922925282024394 0.3320492450149629 0.6365386502719356 0.019003953257494988 1 
6 7.154872692450197 11.084416944529961 0.3269108213041866 0.7167921412439789 0.04944349134115189 1 
7 7.762145808195933 18.663585940351542 0.2539181019311847 0.5837110455050036 0.00705734526168339 1 
8 11.931465200978936 17.040787873938193 0.3228401514394577 0.4175155952711044 0.0068506078514141144 1 
9 17.471576892924624 12.024347841430332 0.3009725446995346 0.13390943727692978 0.15944501195092475 1 
10 17.908421622358155 13.209452511648287 0.25952571965742594 0.1511837266883151 0.1417721291231684 1 
10
Time=1001 Lattice="20.0 0.00000000 0.00000000 0.00000000 25.0 0.00000000 0.00000000 0.00000000 0.000000000000000001" Properties=id:I:1:pos:R:2:radius:R:1:color:R:3
1 12.605114965301738 21.326621708660642 0.2905526160113071 0.41880618251387075 0.00663647884949059 1 
2 11.28010547197805 21.891912944873848 0.3149783095391809 0.45977790798920093 0.001620442519684795 1 
3 10.727734749722906 13.08255446311786 0.29478063183628583 0.45012856558409536 0.002493376899060651 1 
4 3.7006201969592967 12.596913100725079 0.34124138762302775 0.8216095035637273 0.11715887470454162 1 
5 5.1770481389886225 22.28078212948197 0.3320492450149629 0.6365386502713271 0.019003953257322237 1 
6 7.4442962541764155 10.482911425248345 0.3269108213041866 0.7167921412431266 0.049443491340741774 1 
7 7.873902391285164 18.00549373256641 0.2539181019311847 0.5837110455056902 0.007057345261799963 1 
8 11.82134621757555 16.382419665939985 0.3228401514394577 0.4175155952692702 0.006850607851720925 1 
9 16.982657956844918 11.569527704904022 0.3009725446995346 0.13391265199712193 0.1594415562165289 1 
10 17.442915863467736 12.731390764648193 0.25952571965742594 0.151180683429673 0.1417750924525069 1 
10
Time=1201 Lattice="20.0 0.00000000 0.00000000 0.00000000 25.0 0.00000000 0.00000000 0.00000000 0.000000000000000001" Properties=id:I:1:pos:R:2:radius:R:1:color:R:3
1 12.489628985949752 20.62482338328499 0.2905526160113071 0.41882206657438376 0.006633865040631071 1 
2 11.222882409893135 21.183003738930534 0.3149783095391809 0.4597622496426371 0.0016217064857473873 1 
3 10.656794876924083 12.374873664023058 0.29478063183628583 0.45012856558404535 0.002493376899065647 1 
4 4.158095253392728 12.052338815889769 0.34124138762302775 0.8216095035642033 0.11715887470494152 1 
5 5.371268229023149 21.596586882797283 0.3320492450149629 0.636538650271554 0.019003953257386685 1 
6 7.752673326216288 9.84201505265671 0.3269108213041866 0.7167921412426982 0.049443491340535606 1 
7 7.99297758913311 17.304304973234725 0.2539181019311847 0.5837110455058105 0.007057345261820447 1 
8 11.70401586106967 15.680936831938459 0.3228401514394577 0.4175155952694496 0.006850607851690893 1 
9 16.46169726281983 11.084891068920413 0.3009725446995346 0.13391599321336717 0.15943796457173243 1 
10 16.946948705244942 12.222054866938311 0.25952571965742594 0.15117754139015477 0.1417781520211493 1 
10
Time=1401 Lattice="20.0 0.00000000 0.00000000 0.00000000 25.0 0.00000000 0.00000000 0.00000000 0.000000000000000001" Properties=id:I:1:pos:R:2:radius:R:1:color:R:3
1 12.369420110186178 19.89410778952579 0.2905526160113071 0.4188550243419601 0.0066284433355970895 1 
2 11.163269564607964 20.44491500895722 0.3149783095391809 0.4597297956200153 0.0016243278016128126 1 
3 10.582933501786407 11.638048590663063 0.29478063183628583 0.4501285655837847 0.0024933768990917926 1 
4 4.634410411933865 11.48533743915908 0.34124138762302775 0.8216095035648736 0.11715887470550457 1 
5 5.573486845481891 20.884214562569753 0.3320492450149629 0.6365386502713081 0.019003953257316852 1 
6 8.073750228428539 9.174724775241563 0.3269108213041866 0.7167921412443564 0.04944349134133352 1 
7 8.116956636610412 16.574239299993067 0.2539181019311847 0.5837110455062618 0.007057345261897052 1 
8 11.58185351238014 14.950564973204399 0.3228401514394577 0.41751559526919046 0.006850607851734247 1 
9 15.919249261097594 10.580255869366503 0.3009725446995346 0.13391893074692507 0.15943480692453998 1 
10 16.430587963440235 11.691784515649362 0.25952571965742594 0.15117479904243142 0.14178082243281298 1 
10
Time=1601 Lattice="20.0 0.00000000 0.00000000 0.00000000 25.0 0.00000000 0.00000000 0.00000000 0.000000000000000001" Properties=id:I:1:pos:R:2:radius:R:1:color:R:3
1 12.246096078445264 19.14399220875545 0.2905526160113071 0.4189239947624416 0.006617104699889909 1 
2 11.10200595361823 19.687298543400345 0.3149783095391809 0.459661959485146 0.001629813805618996 1 
3 10.507114569292751 10.88169534930022 0.29478063183628583 0.4501285655839571 0.0024933768990745286 1 
4 5.123349411295158 10.903308753311315 0.34124138762302775 0.8216095035643587 0.11715887470507208 1 
5 5.781064887479284 20.15296214874556 0.3320492450149629 0.6365386502717283 0.019003953257436146 1 
6 8.403336672343356 8.489749219306049 0.3269108213041866 0.7167921412449458 0.04944349134161713 1 
7 8.24422151644633 15.824824603987205 0.2539181019311847 0.5837110455078198 0.007057345262161618 1 
8 11.456453479528136 14.200835976830476 0.3228401514394577 0.4175155952670028 0.006850607852100121 1 
9 15.362381976694866 10.062199091610902 0.3009725446995346 0.1339207440584076 0.15943285776626942 1 
10 15.900583380313625 11.147509681402793 0.25952571965742594 0.15117311479984746 0.1417824625153598 1 
10
Time=1801 Lattice="20.0 0.00000000 0.00000000 0.00000000 25.0 0.00000000 0.00000000 0.00000000 0.000000000000000001" Properties=id:I:1:pos:R:2:radius:R:1:color:R:3
1 12.120789003728147 18.380824963488262 0.2905526160113071 0.4190686862874796 0.006593349800830484 1 
2 11.039531836470003 18.9166504330911 0.3149783095391809 0.4595198187661524 0.0016413390666568661 1 
3 10.429983972334028 10.112257227453846 0.29478063183628583 0.4501285655854188 0.002493376898927979 1 
4 5.620747035568455 10.31121099474087 0.34124138762302775 0.8216095035648204 0.11715887470545988 1 
5 5.992234021207727 19.409059097737405 0.3320492450149629 0.6365386502717338 0.0190039532574377 1 
6 8.738624948406935 7.792923613957146 0.3269108213041866 0.7167921412437417 0.049443491341037704 1 
7 8.373688073557616 15.062445064047953 0.2539181019311847 0.583711045507955 0.0070573452621846 1 
8 11.328884031178209 13.438136699142976 0.3228401514394577 0.41751559526618076 0.006850607852237622 1 
9 14.795827153405241 9.535127240558102 0.3009725446995346 0.13392052120699877 0.15943309731178434 1 
10 15.361461526963328 10.59387462543364 0.25952571965742594 0.15117329222393527 0.14178228974251994 1 
10
Time=2001 Lattice="20.0 0.00000000 0.00000000 0.00000000 25.0 0.00000000 0.00000000 0.00000000 0.000000000000000001" Properties=id:I:1:pos:R:2:radius:R:1:color:R:3
1 11.994371427775993 17.608796826445907 0.2905526160113071 0.41937043537930113 0.006543949972161622 1 
2 10.976028059484802 18.137386655966626 0.3149783095391809 0.4592237055219822 0.001665480015038523 1 
3 10.351974492486109 9.334051560325495 0.29478063183628583 0.450128565586595 0.0024933768988100735 1 
4 6.123812375114249 9.712366437743714 0.34124138762302775 0.8216095035647616 0.11715887470541042 1 
5 6.205809371746156 18.65667946687105 0.3320492450149629 0.636538650272188 0.019003953257566653 1 
6 9.077733746300856 7.088157863874938 0.3269108213041866 0.71679214123964 0.049443491339064116 1 
7 8.504629868079112 14.291378409509559 0.2539181019311847 0.583711045506746 0.007057345261979264 1 
8 11.199860962473174 12.66674666353154 0.3228401514394577 0.4175155952670417 0.0068506078520936264 1 
9 14.222751075299346 9.00199393022474 0.3009725446995346 0.13391717148634752 0.1594366980024951 1 
10 14.816259238324076 10.033990775388506 0.25952571965742594 0.15117624431827548 0.14177941506371172 1 
10
Time=2201 Lattice="20.0 0.00000000 0.00000000 0.00000000 25.0 0.00000000 0.00000000 0.00000000 0.000000000000000001" Properties=id:I:1:pos:R:2:radius:R:1:color:R:3
1 11.867657707802703 16.83058125383844 0.2905526160113071 0.4199879722069879 0.006443442543359323 1 
2 10.911385650175735 17.352601468059913 0.3149783095391809 0.4586180433727007 0.00171540896221134 1 
3 10.27337611575847 8.549971185372687 0.29478063183628583 0.45012856561579356 0.002493376895883137 1 
4 6.630675376424582 9.109001177571429 0.34124138762302775 0.8216095035643352 0.11715887470505221 1 
5 6.420997011740478 17.898620089990157 0.3320492450149629 0.636538650271916 0.019003953257489437 1 
6 9.41940249099425 6.378071806961808 0.3269108213041866 0.7167921411795343 0.049443491310143306 1 
7 8.636560147805035 13.514490939815452 0.2539181019311847 0.5837110455054192 0.0070573452617539445 1 
8 11.069863893105627 11.889533371548554 0.3228401514394577 0.41751559526733656 0.0068506078520443325 1 
9 13.645271242525734 8.464781011835031 0.3009725446995346 0.13390944303431196 0.15944500576184123 1 
10 14.267014802706965 9.469940956358174 0.25952571965742594 0.15118293961180646 0.14177289552277134 1 
10
Time=2401 Lattice="20.0 0.00000000 0.00000000 0.00000000 25.0 0.00000000 0.00000000 0.00000000 0.000000000000000001" Properties=id:I:1:pos:R:2:radius:R:1:color:R:3
1 11.741628801542971 16.04769609484096 0.2905526160113071 0.4212009018588541 0.006248339615812448 1 
2 10.845095240418473 16.56464335150906 0.3149783095391809 0.4574275742144985 0.0018157082336517916 1 
3 10.194383147930147 7.761954453634184 0.29478063183628583 0.4501285657956286 0.002493376877855946 1 
4 7.1400830071292125 8.502606812941224 0.34124138762302775 0.8216095035647819 0.11715887470542757 1 
5 6.6372649688869 17.13675499013008 0.3320492450149629 0.6365386502725539 0.01900395325767046 1 
6 9.762786531981886 5.664420869203182 0.3269108213041866 0.7167921405025567 0.04944349098440526 1 
7 8.769152763638692 12.733703223532839 0.2539181019311847 0.5837110455050465 0.007057345261690662 1 
8 10.939214193021428 11.108418197236608 0.3228401514394577 0.4175155952671076 0.006850607852082635 1 
9 13.064802720828844 7.924821231643274 0.3009725446995346 0.13389592235938402 0.1594595408253025 1 
10 13.715096824613731 8.903117095511995 0.25952571965742594 0.1511943387640966 0.14176179616101214 1 
9
Time=2601 Lattice="20.0 0.00000000 0.00000000 0.00000000 25.0 0.00000000 0.00000000 0.00000000 0.000000000000000001" Properties=id:I:1:pos:R:2:radius:R:1:color:R:3
1 11.617668363233754 15.260658822507962 0.2905526160113071 0.4233986357180242 0.005902609812458104 1 
2 10.776086679255295 15.775589122743034 0.3149783095391809 0.45526304487725094 0.0020054168503987335 1 
3 10.115125784303347 6.9713001648669985 0.29478063183628583 0.45012856560067604 0.002493376897398536 1 
4 7.651195670865929 7.894182791982576 0.34124138762302775 0.8216095035636621 0.11715887470448688 1 
5 6.854256794284871 16.372339859444114 0.3320492450149629 0.6365386502725506 0.01900395325766957 1 
6 8.902189178848547 11.950302140733523 0.2539181019311847 0.5837110455017656 0.007057345261133496 1 
7 10.80812719667416 10.32468856037212 0.3228401514394577 0.4175155952724054 0.006850607851196511 1 
8 12.482290228621649 7.383014705839706 0.3009725446995346 0.13387496089899753 0.15948207720695612 1 
9 13.161424359663071 8.334446450158737 0.25952571965742594 0.1512113387538389 0.1417452445729287 1 
9
Time=2801 Lattice="20.0 0.00000000 0.00000000 0.00000000 25.0 0.00000000 0.00000000 0.00000000 0.000000000000000001" Properties=id:I:1:pos:R:2:radius:R:1:color:R:3
1 11.49761872547426 14.469087786077644 0.2905526160113071 0.42683627484110537 0.005381895478063059 1 
2 10.702722068685071 14.987566374624805 0.3149783095391809 0.45184906518473933 0.0023239130956596576 1 
3 10.041343538899367 6.178627823056376 0.29478063183628583 0.462301295521666 0.0014232178684458474 1 
4 8.163450794616299 7.284398796585099 0.34124138762302775 0.821609503436544 0.11715887459770002 1 
5 7.071733648771436 15.606216076486866 0.3320492450149629 0.6365386502715196 0.019003953257376915 1 
6 9.03552296251465 11.165149967511732 0.2539181019311847 0.5837110454558382 0.00705734525333418 1 
7 10.676747189294707 9.539207098623585 0.3228401514394577 0.41751559533611504 0.006850607840540424 1 
8 11.898363327633563 6.839974397156705 0.3009725446995346 0.1338443859328705 0.15951495438547775 1 
9 12.606614302754261 7.764543242985985 0.25952571965742594 0.15123475530024988 0.14172244824783764 1 
9
Time=3001 Lattice="20.0 0.00000000 0.00000000 0.00000000 25.0 0.00000000 0.00000000 0.00000000 0.000000000000000001" Properties=id:I:1:pos:R:2:radius:R:1:color:R:3
1 11.383188215397173 13.672110542657213 0.2905526160113071 0.4310463108158381 0.00477743513860962 1 
2 10.623418241712136 14.202632161762523 0.3149783095391809 0.44760426034985684 0.0027528919475605096 1 
3 10.00191689209076 5.384082088568309 0.29478063183628583 0.4913170791372773 7.539879968732066E-5 1 
4 8.676471413167494 6.673703557861479 0.34124138762302775 0.8216094987241866 0.11715887063903735 1 
5 7.289535497781115 14.8389474083187 0.3320492450149629 0.6365386502707946 0.01900395325717108 1 
6 9.169055998074715 10.378824473670774 0.2539181019311847 0.5837110450473536 0.007057345183965724 1 
7 10.545170849663903 8.752551823491663 0.3228401514394577 0.41751559573119434 0.0068506077744592275 1 
8 11.313439368394448 6.296124770911196 0.3009725446995346 0.13380057544578966 0.15956207400442995 1 
9 12.051080237418532 7.1938103596985234 0.25952571965742594 0.15126540441688513 0.14169261542150524 1 
8
Time=3201 Lattice="20.0 0.00000000 0.00000000 0.00000000 25.0 0.00000000 0.00000000 0.00000000 0.000000000000000001" Properties=id:I:1:pos:R:2:radius:R:1:color:R:3
1 11.274556994706764 12.869359701648 0.2905526160113071 0.4345726178546928 0.0042992256757994896 1 
2 10.538056800193203 13.42197278671933 0.3149783095391809 0.44396167975078077 0.0031502172047914168 1 
3 9.190004779457094 6.062397887360534 0.34124138762302775 0.821609306104738 0.11715870882723617 1 
4 7.507555109896325 14.070911607968798 0.3320492450149629 0.6365386502715431 0.019003953257383577 1 
5 9.302722540265497 9.591712797641083 0.2539181019311847 0.5837110423214079 0.007057344721048242 1 
6 10.41346294706373 7.965110044436959 0.3228401514394577 0.417515550527678 0.006850615335223242 1 
7 10.727790652203847 5.751773859946617 0.3009725446995346 0.13373440671712333 0.15963326370348352 1 
8 11.495099173980883 6.622507429942142 0.25952571965742594 0.15130448835573823 0.14165457982674523 1 
8
Time=3401 Lattice="20.0 0.00000000 0.00000000 0.00000000 25.0 0.00000000 0.00000000 0.00000000 0.000000000000000001" Properties=id:I:1:pos:R:2:radius:R:1:color:R:3
1 11.16949132991612 12.061854495694705 0.2905526160113071 0.4359786792061243 0.00411566824126447 1 
2 10.448877128446103 12.645154529410414 0.3149783095391809 0.442411105456194 0.0033275533863164064 1 
3 9.65792606177382 5.451880060035011 0.34124138762302775 0.41965270747164607 0.006497910254309958 1 
4 7.725720634531676 13.302361789461488 0.3320492450149629 0.6365386502710586 0.01900395325724602 1 
5 9.436478525457199 8.80407436134573 0.2539181019311847 0.5837110299536538 0.007057342620768459 1 
6 10.281664606430649 7.177144732467373 0.3228401514394577 0.4175067953626119 0.006852079809055667 1 
7 10.187471079457316 5.206107836402919 0.3009725446995346 0.5138455353862661 1.917356126774905E-4 1 
8 10.938860810502328 6.050792981380531 0.25952571965742594 0.1513639902163364 0.14159668991187424 1 
7
Time=3601 Lattice="20.0 0.00000000 0.00000000 0.00000000 25.0 0.00000000 0.00000000 0.00000000 0.000000000000000001" Properties=id:I:1:pos:R:2:radius:R:1:color:R:3
1 11.064359963790686 11.251633688552939 0.2905526160113071 0.43498878598318946 0.004244473503259405 1 
2 10.359463804666252 11.870577400049159 0.3149783095391809 0.4432740201332756 0.003228258444424037 1 
3 9.399786623756471 5.422764760383056 0.34124138762302775 0.5059627779977788 0.9999644440143212 1 
4 7.943983928081594 12.533467552260296 0.3320492450149629 0.6365386502611359 0.01900395325442933 1 
5 9.570294394661973 8.016083079471919 0.2539181019311847 0.5837109984286001 0.0070573372672163015 1 
6 10.149608904633872 6.38933634868369 0.3228401514394577 0.41682312425993095 0.006966930782405734 1 
7 10.382821708250718 5.478402150990004 0.25952571965742594 0.15253910866227027 0.14045733355999268 1 
6
Time=3801 Lattice="20.0 0.00000000 0.00000000 0.00000000 25.0 0.00000000 0.00000000 0.00000000 0.000000000000000001" Properties=id:I:1:pos:R:2:radius:R:1:color:R:3
1 10.95589774507958 10.440609247803492 0.2905526160113071 0.4322487097986747 0.004611503286505669 1 
2 10.272984590231637 11.09667725013532 0.3149783095391809 0.4458746415685932 0.0029381873703515637 1 
3 9.40950267716417 6.810705112157182 0.34124138762302775 0.7507823162104554 0.9325600881682441 1 
4 8.1623127316598 11.764342536813967 0.3320492450149629 0.6365386498827741 0.019003953147025077 1 
5 9.694508714459761 7.247118140195652 0.2539181019311847 0.24279749716482113 0.07122631548179198 1 
6 10.113966044625686 5.620476175131372 0.3228401514394577 0.505221028976029 2.7259886669961375E-5 1 
5
Time=4001 Lattice="20.0 0.00000000 0.00000000 0.00000000 25.0 0.00000000 0.00000000 0.00000000 0.000000000000000001" Properties=id:I:1:pos:R:2:radius:R:1:color:R:3
1 10.841991262863749 9.629876075533618 0.2905526160113071 0.42852593139485096 0.005134909781437047 1 
2 10.191399710005006 10.32265552235617 0.3149783095391809 0.44937934014379505 0.002569051228492214 1 
3 9.21562808833568 6.3163630755327125 0.34124138762302775 0.3949807585747901 0.011153440300053385 1 
4 8.380685423567593 10.9950628903769 0.3320492450149629 0.6365386370452949 0.019003949502895356 1 
5 10.068053826200588 7.663471157174069 0.2539181019311847 0.9066516840533635 0.7909199337559449 1 
5
Time=4201 Lattice="20.0 0.00000000 0.00000000 0.00000000 25.0 0.00000000 0.00000000 0.00000000 0.000000000000000001" Properties=id:I:1:pos:R:2:radius:R:1:color:R:3
1 10.721469788511762 8.819682791787935 0.2905526160113071 0.4242959512916249 0.005764330496917713 1 
2 10.11565063178378 9.548549163943004 0.3149783095391809 0.45325051761494006 0.0021903115680361185 1 
3 9.199172041606873 5.71670555460304 0.34124138762302775 0.5760920221842499 0.005823913812180059 1 
4 8.599087313613408 10.22567971929518 0.3320492450149629 0.6365382629324909 0.019003843304982337 1 
5 10.346171232297669 7.730692809791179 0.2539181019311847 0.9563125447004901 0.29560121930656424 1 
5
Time=4401 Lattice="20.0 0.00000000 0.00000000 0.00000000 25.0 0.00000000 0.00000000 0.00000000 0.000000000000000001" Properties=id:I:1:pos:R:2:radius:R:1:color:R:3
1 10.60007656492621 8.034804787830044 0.2905526160113071 0.42861139454667996 0.005122573750398041 1 
2 10.047880609287615 8.775043696212727 0.3149783095391809 0.46119568546229806 0.0015080490386438772 1 
3 9.324008629381833 5.3575261339929545 0.34124138762302775 0.5296671655994237 0.999119083271013 1 
4 8.817503351197496 9.456229898909914 0.3320492450149629 0.6365293817878611 0.01900132234212487 1 
5 10.485027783384247 7.4899361823792345 0.2539181019311847 0.5532068421001987 0.00283902812698128 1 
5
Time=4601 Lattice="20.0 0.00000000 0.00000000 0.00000000 25.0 0.00000000 0.00000000 0.00000000 0.000000000000000001" Properties=id:I:1:pos:R:2:radius:R:1:color:R:3
1 10.552775602717967 7.585837763054347 0.2905526160113071 0.48982655770471045 1.035096423816495E-4 1 
2 9.98186585846752 8.017204151101007 0.3149783095391809 0.4308188347583558 0.004809161660064287 1 
3 9.464998760362747 5.6986976118088855 0.34124138762302775 0.8917602081379689 0.8106830206491744 1 
4 9.035819251095022 8.686804654106025 0.3320492450149629 0.6363625447827091 0.018953997646395937 1 
5 10.449030132985646 6.712658966873181 0.2539181019311847 0.4525774970373868 0.0022539741868741747 1 
5
Time=4801 Lattice="20.0 0.00000000 0.00000000 0.00000000 25.0 0.00000000 0.00000000 0.00000000 0.000000000000000001" Properties=id:I:1:pos:R:2:radius:R:1:color:R:3
1 10.59053780441711 7.01154501774347 0.2905526160113071 0.5348340913362978 0.0012148898766378702 1 
2 9.828455562760563 7.330280940990062 0.3149783095391809 0.3901139601584447 0.012224377148734367 1 
3 9.723815566853679 5.7272469735162 0.34124138762302775 0.933577363674255 0.25098058367010245 1 
4 9.250044075150358 7.920877434611049 0.3320492450149629 0.6290594803872177 0.016943429273359956 1 
5 10.342930141688873 5.874003134871985 0.2539181019311847 0.45210973867656684 0.002298761433756069 1 
5
Time=5001 Lattice="20.0 0.00000000 0.00000000 0.00000000 25.0 0.00000000 0.00000000 0.00000000 0.000000000000000001" Properties=id:I:1:pos:R:2:radius:R:1:color:R:3
1 10.594168707930939 6.347413698386776 0.2905526160113071 0.4707168560801973 8.582390921672012E-4 1 
2 9.766529083309333 6.546090405957693 0.3149783095391809 0.5139281821035633 1.940319050902084E-4 1 
3 9.666660960412887 5.392368164182561 0.34124138762302775 0.39604769056746564 0.010925448051483044 1 
4 9.391300084164735 7.246604002247035 0.3320492450149629 0.5760755625453103 0.005821379677940164 1 
5 10.50287837968589 5.212408106195225 0.2539181019311847 0.6136861609451124 0.013096049708402946 1 
3
Time=5201 Lattice="20.0 0.00000000 0.00000000 0.00000000 25.0 0.00000000 0.00000000 0.00000000 0.000000000000000001" Properties=id:I:1:pos:R:2:radius:R:1:color:R:3
1 10.52649741946179 5.660327568871966 0.2905526160113071 0.44505268508020435 0.0030283784931932622 1 
2 9.799071702175294 5.678105588098838 0.3149783095391809 0.5107289793538586 1.1512425156884332E-4 1 
3 9.496336932301562 6.652746947569483 0.3320492450149629 0.6025791360022429 0.010635595024491629 1 
2
Time=5401 Lattice="20.0 0.00000000 0.00000000 0.00000000 25.0 0.00000000 0.00000000 0.00000000 0.000000000000000001" Properties=id:I:1:pos:R:2:radius:R:1:color:R:3
1 10.469062437181133 5.022126062237721 0.2905526160113071 0.4274523976141127 0.005291150889678131 1 
2 9.651082449721097 6.018366057242742 0.3320492450149629 0.6332714751637174 0.01808847917103429 1 
1
Time=5601 Lattice="20.0 0.00000000 0.00000000 0.00000000 25.0 0.00000000 0.00000000 0.00000000 0.000000000000000001" Properties=id:I:1:pos:R:2:radius:R:1:color:R:3
1 9.859665515212628 5.352577596355812 0.3320492450149629 0.6676028049826572 0.028927500524658756 1 
