100
Time=1 Lattice="20.0 0.00000000 0.00000000 0.00000000 25.0 0.00000000 0.00000000 0.00000000 0.000000000000000001" Properties=id:I:1:pos:R:2:radius:R:1:color:R:3
1 4.4178026739628935 15.36197558515327 0.3242137726971337 0.7528593045243726 0.06865075389488551 1 
2 10.706378104880551 21.557592904043887 0.2660875590329283 0.4066202378082316 0.008797170190349202 1 
3 19.455061706594833 6.6328155944420955 0.2582049490583301 0.007144449396256802 0.4157776381292881 1 
4 7.249458490433346 10.94930144730344 0.2506137036593739 0.7157544297583254 0.04894565068091866 1 
5 16.673011887159056 18.524439722935867 0.2559435265530743 0.27221396931449815 0.05490054569282654 1 
6 16.498149221818686 17.62382829851822 0.3114801879552943 0.27225400266970934 0.054880060320781354 1 
7 17.890370478714946 5.455024123199332 0.2603715750779759 8.087800006508772E-4 0.47157244513572427 1 
8 10.002316403397133 7.896858906720316 0.25902088904232234 0.5168359043136933 2.8352806222192717E-4 1 
9 5.017335944358041 6.612951025445209 0.3061345217927378 0.9594640782450365 0.3027875237150578 1 
10 0.7229269273383522 23.562974335157346 0.3172645020840095 0.7254391784086541 0.05370729690209919 1 
11 15.16637164998907 11.467187971711919 0.26511583250915205 0.18463546005044817 0.11199844466496328 1 
12 18.478304871582118 14.628138853259092 0.2525938292436375 0.18063419346753118 0.11528519443896401 1 
13 14.375980851483597 18.24658218312269 0.28812354193812206 0.37919554772621505 0.014813144952554591 1 
14 2.900641259044095 9.738728466206302 0.2564077232867689 0.9397719183489972 0.26209106819700345 1 
15 4.310195066900841 8.021568727010052 0.347966580977338 0.9934340751751939 0.5807639366054004 1 
16 2.7624273144724625 19.78553116777539 0.29101476076591676 0.7222721867759763 0.05212158459485289 1 
17 17.68451120140163 9.658851429936421 0.32950353735127713 0.0709667804273919 0.2432306550556273 1 
18 10.038046504810806 13.447526250832334 0.3263994109733778 0.5036617848504283 1.3408848088036773E-5 1 
19 18.757438748274538 12.477156778375328 0.2792573058982623 0.10651490662760238 0.19150448740100684 1 
20 14.275411834649171 15.813829019556168 0.2794953564909307 0.31246621499961147 0.036501262694893566 1 
21 16.200806280226747 16.30102834318377 0.2709639374240532 0.2565371749656556 0.0632782890371762 1 
22 11.09693531671081 5.534312873115714 0.32743072225842873 0.04343177473769494 0.2961729760781729 1 
23 5.930930884090698 12.03813672904534 0.29062280195333523 0.7547600598719297 0.06977062874084161 1 
24 6.955479504157773 15.477869354987876 0.25119264157341703 0.6424805221743836 0.020730450789000154 1 
25 13.233241684909732 23.7402425877 0.323460832509082 0.41244589024197825 0.007725404002521918 1 
26 6.52428130285613 24.679816615371923 0.28967276251655016 0.5902304583606863 0.008208922016655074 1 
27 18.363353257332566 21.552865505914404 0.2905010750718282 0.2724280732713845 0.05479103988685752 1 
28 8.586670328183663 15.820611122618331 0.34854240134428255 0.5754471348388264 0.0057250463106471305 1 
29 19.150210940517947 23.51795189889939 0.3404827630458971 0.2765642495818675 0.05270092171446855 1 
30 5.050087427750097 20.460986862077476 0.33036989946324913 0.6438228030326285 0.021131540683834826 1 
31 0.686167266603275 6.426532216039477 0.33662692820567386 0.9943561424939543 0.4250866875749233 1 
32 6.5633631010223645 21.185428272316475 0.28739983047708817 0.6068744691234125 0.011555686030036039 1 
33 9.968911546667915 23.631567658628466 0.2716505376378289 0.5035138271128515 1.234713343073457E-5 1 
34 7.136149043128818 22.978921393696552 0.26609297235303775 0.5813656088626639 0.006664781619629356 1 
35 6.234655969546069 8.623279157406362 0.30953881931988075 0.9966410275962502 0.5578592231899173 1 
36 2.3603003161493747 12.4895037402637 0.3215686239584163 0.9148766024738115 0.22093476619294367 1 
37 3.6368057940810705 15.7724500361403 0.2514871222948705 0.7444815150107646 0.0638477458294624 1 
38 15.0188484715362 10.064027083696265 0.25325108594710327 0.15164602330087723 0.14132255867157317 1 
39 7.2834297671875055 12.09328546601769 0.29528075629062495 0.6848524593893497 0.03542538999886269 1 
40 1.7382229788539705 11.919511979785128 0.3121160795933567 0.8211317325060215 0.11675802633625698 1 
41 0.2099374933345206 21.158998522496546 0.34291632484486995 0.9995425970841576 0.4786179117386767 1 
42 14.06288986907468 20.161703001503177 0.28083968194775866 0.3732388801592258 0.016335220946663453 1 
43 8.998236931945925 18.59905175879546 0.2777661706500398 0.44996062169057033 0.0025102406899155105 1 
44 11.606117102284653 23.191446125009325 0.3458132059625825 0.453313301340015 0.0021844195204093753 1 
45 7.8736817816449385 9.027974817279473 0.29889665669353094 0.741865008825537 0.06239136490943997 1 
46 17.86038108205405 7.6281363664644095 0.29340646056760455 0.025207659441049246 0.34324467043652607 1 
47 10.318429526386522 16.170352946648606 0.2616807979543726 0.48128813027686057 3.502567483255059E-4 1 
48 3.3132918921125913 18.61094141507157 0.34010522697093537 0.7224595203948995 0.0522146029785347 1 
49 10.53850598093519 20.269501896164495 0.32756936633106565 0.4781241060500394 4.787839702000696E-4 1 
50 15.739703665809303 22.71724773365346 0.27934558759599637 0.3434822623125814 0.025129283078844267 1 
51 19.719847345950733 19.12347743915767 0.2953368537112999 0.019504551900689338 0.3617099990749777 1 
52 16.194235614494314 13.839703382959923 0.3182092890925798 0.20997205015575404 0.09271166440819406 1 
53 0.46958622698643626 13.366538179638034 0.3463973721329374 0.7553401778150955 0.07011467390319615 1 
54 19.347900794737804 17.386719305125542 0.3198846227161169 0.019083845973128677 0.3631802178191963 1 
55 5.919896898903128 20.032533914465105 0.3395508532834112 0.6540747608229369 0.024331030991767533 1 
56 13.16553940050199 19.736444072734788 0.3372525773420708 0.38418206367417973 0.013598719548120197 1 
57 5.875265143893903 17.577912471485245 0.2889944108432957 0.659200399177428 0.026021906728013855 1 
58 9.67842239321686 18.303030143469744 0.25750740763657454 0.5936985929855748 0.0088578885164462 1 
59 1.101568257804148 9.522828406368754 0.3334026217346624 0.9414710626848982 0.2652590772535247 1 
60 4.778961490263907 7.4281234145090975 0.30480545323584224 0.9207885528427076 0.22993150165830173 1 
61 1.20066766516959 13.022592759677305 0.2846913906502013 0.8917111893340639 0.18925517840116274 1 
62 1.1857028348207275 16.130125094435623 0.3090601229104327 0.8125636579089062 0.10973860073714142 1 
63 4.5286572484442855 9.623422508000601 0.340643215762537 0.8844689807901338 0.18033829943173413 1 
64 15.153992730891595 20.132731488223403 0.3247306410645542 0.3386168002116905 0.026760670668543707 1 
65 17.66734001581682 20.566335479259394 0.2653596313766933 0.27671012797738403 0.0526280819585076 1 
66 4.55836073888281 18.581979480154786 0.3184166306440472 0.6895762903046584 0.03733291650007792 1 
67 13.93620334956025 11.712374268654342 0.32155459889795157 0.2375384409978587 0.07442517691225492 1 
68 4.3585872453538785 12.002090392288313 0.2719608793612291 0.8170244928601126 0.11335355823855248 1 
69 10.713923645971022 11.369786825755444 0.26660827726244696 0.43663245125279215 0.0040317008459409 1 
70 4.697379569028625 21.256054685373183 0.3163330726085004 0.6493496022214844 0.022826345743727827 1 
71 3.2032333785906273 9.028226387790092 0.26422407736572706 0.9189765728911136 0.22712891071347008 1 
72 5.643360725627766 10.227309189726475 0.3076338761673365 0.8247906521214905 0.11985393294879809 1 
73 16.075194242256895 6.125639175747482 0.2811958514605782 0.00810564005724218 0.4103342949812773 1 
74 1.0976643351482835 21.581007200204493 0.33100066539149026 0.7611465514890315 0.07361698128866973 1 
75 14.302458117248113 10.712272716709675 0.3264816801278194 0.1913143774472818 0.10666402855924706 1 
76 19.576447556739915 16.677503918915352 0.31095481486547294 0.33950255575650157 0.02645953669057477 1 
77 17.688468250883428 15.025066201822012 0.291343582905033 0.6895651008142544 0.0373283318018256 1 
78 19.33278419840712 11.729066053082846 0.2718094892387798 0.18240684980620875 0.11382051977094387 1 
79 13.030372571652045 17.71053850518805 0.28515880052539533 0.38041741199743667 0.014510551456976384 1 
80 7.326402463271872 14.067886852976411 0.3222230415322154 0.6446978499588999 0.02139522336559191 1 
81 17.697774299304434 13.644615095075853 0.25361077710610186 0.1651576902606956 0.12867719217849316 1 
82 2.2683978854300744 9.050082972655419 0.2909650107677771 0.9372531584293915 0.2574929373327006 1 
83 6.0207300837180835 23.70680760256159 0.2628615786297111 0.6056118299647651 0.011281122349981743 1 
84 19.630775941756053 12.175768941280914 0.2626509875529789 0.6839649486043995 0.9649267659373686 1 
85 7.7257339909346925 17.07450845822876 0.3350901778391919 0.596453118816645 0.009391402571721996 1 
86 0.19982827436382997 11.211475529458708 0.31285295830952786 0.9997779870899061 0.48510155644499386 1 
87 3.9936443467973457 13.874495219994337 0.3041126675736277 0.7840433647057727 0.08851565404425965 1 
88 0.15586074189132357 13.945447127519845 0.32091980686949123 0.9961332269240006 0.5620630416752043 1 
89 2.2939250318454136 23.112618957702626 0.30290387825742415 0.6978924245182966 0.040828367254388986 1 
90 13.69345297306 9.192502984157516 0.3094270835772598 0.16453656663278038 0.12923823703963622 1 
91 11.360503030751168 21.10948757115254 0.3025001758840843 0.5164302244102219 2.700251877723048E-4 1 
92 14.272113574060416 18.996092369209194 0.27385755523355193 0.2970932204839052 0.043022058709168254 1 
93 18.14566896044064 15.83072969286305 0.2503280694760613 0.19594547778807375 0.10307324665314227 1 
94 7.921598855861346 15.020261662998907 0.29139826784753675 0.6026204065993319 0.01064424786318513 1 
95 11.989632459887737 20.083084466808998 0.33838273352269166 0.4308762037873433 0.00480115024653871 1 
96 5.666426484741046 8.25102665774111 0.33919221932442184 0.3119174162729495 0.036723687527025595 1 
97 2.809447003977293 13.82856882021408 0.3023475103165908 0.8178592428122281 0.11403950751555281 1 
98 17.062187731667823 14.84492178467031 0.27963230824963603 0.09501768114356635 0.20676064143149903 1 
99 1.4352202324732033 10.445244207194268 0.27273478898657066 0.9292597719083758 0.24360957853077053 1 
100 2.941210593684191 7.144140070761064 0.34202324833061504 0.9789746783577411 0.3565313362015997 1 
100
Time=201 Lattice="20.0 0.00000000 0.00000000 0.00000000 25.0 0.00000000 0.00000000 0.00000000 0.000000000000000001" Properties=id:I:1:pos:R:2:radius:R:1:color:R:3
1 4.511835958364773 15.201174922934387 0.3242137726971337 0.7519481403588459 0.06811791589634186 1 
2 10.677547343333888 21.393300568037297 0.2660875590329283 0.4197648551656826 0.006479664518860895 1 
3 19.27918601520237 6.602760811761885 0.2582049490583301 0.0071444500741879025 0.41577763416214575 1 
4 7.326547841811268 10.788138506909819 0.2506137036593739 0.7157531080142655 0.048945018448765254 1 
5 16.59416826813889 18.37028481153045 0.2559435265530743 0.27243128347394197 0.05478939898214169 1 
6 16.414454825704023 17.46034477323333 0.3114801879552943 0.27204648414041344 0.05498629840503422 1 
7 17.712233879061046 5.444879737906122 0.2603715750779759 8.087800745869567E-4 0.47157244383739805 1 
8 10.00832430322843 7.718534865095222 0.25902088904232234 0.5168359043581257 2.835280637188964E-4 1 
9 5.194746244907826 6.533486760851949 0.3061345217927378 0.9534924640275361 0.28941845980657777 1 
10 0.803374538303892 23.40371545790691 0.3172645020840095 0.7254390881593002 0.05370725131377807 1 
11 15.054138945329594 11.329099235724994 0.26511583250915205 0.18465228272617612 0.11198477193518752 1 
12 18.366757627706836 14.491141492772849 0.2525938292436375 0.18805093875271223 0.10924715844035648 1 
13 14.323435598530265 18.04419057973807 0.28812354193812206 0.3701364381279747 0.01715897512958714 1 
14 3.045026049495214 9.659543624365913 0.2564077232867689 0.9371276257026553 0.2572667331255164 1 
15 4.4140819696666815 8.00691291838391 0.347966580977338 0.9820954241024829 0.36739531660062974 1 
16 2.8416973295974413 19.625802087604555 0.29101476076591676 0.7222721543248215 0.05212156849006144 1 
17 17.531410512733395 9.56722317978957 0.32950353735127713 0.07096677811966795 0.24323065891157925 1 
18 10.03935321431738 13.269105818045603 0.3263994109733778 0.5036617848097494 1.3408847790108425E-5 1 
19 18.616543344935277 12.365135604842067 0.2792573058982623 0.1101171315001811 0.18696430099691042 1 
20 14.208490319523458 15.648429288197207 0.2794953564909307 0.31246621390509066 0.03650126313774188 1 
21 16.11391319666395 16.14516008367504 0.2709639374240532 0.25653748463887993 0.0632781164012543 1 
22 10.93400874580697 5.461577110457266 0.32743072225842873 0.04343177475488175 0.29617297603967485 1 
23 6.02183329623464 11.88462119623112 0.29062280195333523 0.7547525350222037 0.06976617299454374 1 
24 7.006192410461006 15.307253014085278 0.25119264157341703 0.6424321732405206 0.020716079942188825 1 
25 13.201998065060662 23.564574625022807 0.323460832509082 0.41244602482156306 0.007725380066721632 1 
26 6.556408974753821 24.504715112935287 0.28967276251655016 0.5902373842135941 0.008210192775116365 1 
27 18.28220246467148 21.39410679077318 0.2905010750718282 0.27242773327705777 0.05479121367769252 1 
28 8.61330732463513 15.64621712081641 0.34854240134428255 0.5755440957841382 0.005739856358863427 1 
29 19.070477796947298 23.358333030563312 0.3404827630458971 0.2765642495812833 0.052700921714760374 1 
30 5.105998046600649 20.273282115037933 0.33036989946324913 0.6417492527724886 0.020513660947007684 1 
31 0.8625784720253269 6.399799367765261 0.33662692820567386 0.9943561424895949 0.42508668754615564 1 
32 6.60148934979692 21.011184250512354 0.28739983047708817 0.6068779677506956 0.011556451563252523 1 
33 9.97016543174409 23.45314702089078 0.2716505376378289 0.5035136840215492 1.2346127830187292E-5 1 
34 7.165186767284109 22.802861269327867 0.26609297235303775 0.5813666644172264 0.006664955713042375 1 
35 6.497614673899967 8.587759675176287 0.30953881931988075 0.9748247887904748 0.3433429862722997 1 
36 2.5102145208663225 12.38486396779628 0.3215686239584163 0.9057889727098135 0.20787791999385902 1 
37 3.7203569215470913 15.62380718229286 0.2514871222948705 0.7455019910209408 0.06442133614609419 1 
38 14.894757199360711 9.93604938554616 0.25325108594710327 0.15225842336396872 0.1407287989851021 1 
39 7.349313968003221 11.927709210481606 0.29528075629062495 0.6848628421181068 0.03542952138129146 1 
40 1.8544622598381295 11.785901281281689 0.3121160795933567 0.834330150777415 0.1282159897451869 1 
41 0.8085374514586466 20.95004447457753 0.34291632484486995 0.7477519790131524 0.06569715992746894 1 
42 14.018267026409626 19.99162303286066 0.28083968194775866 0.3729779659348791 0.016403677782844128 1 
43 8.985289059391635 18.433176516109537 0.2777661706500398 0.47064093659321143 8.626988534355395E-4 1 
44 11.589456894902657 23.013799995980676 0.3458132059625825 0.45331330779598383 0.002184418914948527 1 
45 7.959992213674637 8.871813989903771 0.29889665669353094 0.7418692688919981 0.06239371946274547 1 
46 17.690951208202172 7.572198152262134 0.29340646056760455 0.025207659231553603 0.34324467107106227 1 
47 10.3117522082831 15.992052776069107 0.2616807979543726 0.4812882413853336 3.50252587328459E-4 1 
48 3.3926568604913556 18.451174569749437 0.34010522697093537 0.7224264267750077 0.05219816361240526 1 
49 10.530680187021668 20.09082259557262 0.32756936633106565 0.4781194447809341 4.7898812631974597E-4 1 
50 15.683850242628768 22.547789910597203 0.27934558759599637 0.3434822622571614 0.025129283097110766 1 
51 19.53582096461326 18.98920481796079 0.2953368537112999 0.14688017713674367 0.14601357271637871 1 
52 16.09070011713119 13.694308983868074 0.3182092890925798 0.20996908850144447 0.09271377340337539 1 
53 0.8790874052123996 13.14300955443272 0.3463973721329374 0.8441176285902946 0.13725620929726168 1 
54 19.21634702362264 17.31774234018857 0.3198846227161169 0.09001959597874037 0.21379016732724793 1 
55 5.977207757086069 19.855872613924017 0.3395508532834112 0.6544708020784166 0.02445949562077193 1 
56 13.123640177963342 19.560375972655205 0.3372525773420708 0.3843152320286498 0.013567029839244071 1 
57 5.932076114043936 17.408772484590344 0.2889944108432957 0.6592004194692763 0.02602191354366762 1 
58 9.711424171509496 18.112730379811417 0.25750740763657454 0.5780874199999123 0.00613528690768228 1 
59 1.259417114896783 9.438819107171625 0.3334026217346624 0.9412861837722843 0.26491171017744497 1 
60 4.987550749991719 7.311137750289311 0.30480545323584224 0.9476387006310036 0.2772454406810342 1 
61 1.6573767935238326 12.741748935367449 0.2846913906502013 0.9243463861286556 0.23555691618128888 1 
62 1.2972413130801081 15.990860144250503 0.3090601229104327 0.8125636625196572 0.10973860442993105 1 
63 4.665791291161731 9.509390948093973 0.340643215762537 0.884430391546946 0.1802918924158135 1 
64 15.096536536982388 19.964159233069427 0.3247306410645542 0.33877333568735457 0.02670731812691468 1 
65 17.587601762087658 20.406575921840226 0.2653596313766933 0.27671049266527625 0.052627899937628675 1 
66 4.626062306690328 18.41676898413387 0.3184166306440472 0.6896116573698322 0.03734740961552441 1 
67 13.843297791547606 11.561844826820177 0.32155459889795157 0.23723781406000488 0.07461072693351162 1 
68 4.471716942117875 11.86411612077616 0.2719608793612291 0.8170242310500903 0.1133533435718097 1 
69 10.69131090837987 11.19280032030743 0.26660827726244696 0.43663245131948913 0.004031700837419383 1 
70 4.74358615415605 21.109522112121315 0.3163330726085004 0.6512467593330605 0.023424279058146646 1 
71 3.3680519479726434 8.9218100350608 0.26422407736572706 0.9210551662663768 0.2303473586993931 1 
72 5.7592999212493226 10.091629446081399 0.3076338761673365 0.8248477685664348 0.11990273973967136 1 
73 15.899661514063908 6.093641927840397 0.2811958514605782 0.008105639960481581 0.41033429551209316 1 
74 1.477532039648259 21.520644506073328 0.33100066539149026 0.9984538080078866 0.46070876328700217 1 
75 14.1913223839209 10.570797153941603 0.3264816801278194 0.19092739340545967 0.10696803711039415 1 
76 19.485947192139246 16.467236813551587 0.31095481486547294 0.2749450928106722 0.0535133946577982 1 
77 17.67008024468733 14.91310257438836 0.291343582905033 0.304780843684208 0.03968545427354747 1 
78 19.080421536334285 11.460964587652397 0.2718094892387798 0.13951480225316404 0.15351706794500747 1 
79 12.987697990503237 17.537286704222545 0.28515880052539533 0.38041561209448427 0.014510994800847055 1 
80 7.378176945454752 13.896589749824203 0.3222230415322154 0.64462244317876 0.0213724319170423 1 
81 17.57825160465575 13.512072213422364 0.25361077710610186 0.16515363437019692 0.12868084963940762 1 
82 2.4209181925246535 8.965579922508887 0.2909650107677771 0.9374601479477189 0.25786652656528486 1 
83 6.058495727231189 23.53204018183233 0.2628615786297111 0.6056037344995245 0.01127937299541576 1 
84 19.598829178649964 12.23130431644335 0.2626509875529789 0.006878947029059945 0.41734634238685314 1 
85 7.760151000973697 16.89944623643477 0.3350901778391919 0.5964529354959113 0.009391366531099898 1 
86 1.0221336853808498 11.138481204771178 0.31285295830952786 0.9918500460231712 0.4100915341750043 1 
87 4.095113594723475 13.727511769138882 0.3041126675736277 0.7840751842235721 0.08853762054308834 1 
88 0.8708211153166381 14.019123803572034 0.32091980686949123 0.9987727224734926 0.5350110170714921 1 
89 2.3645434127204323 22.94876257879309 0.30290387825742415 0.6978927971251851 0.040828527839576745 1 
90 13.573740854226624 9.060194441692179 0.3094270835772598 0.16453658103226015 0.12923822401105767 1 
91 11.364677298563041 20.91864208848391 0.3025001758840843 0.5059195699122655 3.504253592551132E-5 1 
92 14.214421699776768 18.85891574240737 0.27385755523355193 0.3133751016435964 0.036134559043830006 1 
93 18.039725468037087 15.692774039911072 0.2503280694760613 0.1949425459573524 0.10384352872505292 1 
94 7.958569947958948 14.843982556675195 0.29139826784753675 0.6026461025245854 0.010649637134586054 1 
95 11.964929978222042 19.906121559080738 0.33838273352269166 0.4308720894911959 0.004801724570160926 1 
96 5.678026143814698 8.05961985941328 0.33919221932442184 0.6879885772733534 0.03668553355767051 1 
97 2.9227352644170845 13.691002093768228 0.3023475103165908 0.8178412917141087 0.11402472452045986 1 
98 16.856942007224767 14.671566599435156 0.27963230824963603 0.1365575002225764 0.1566204004959854 1 
99 1.5879012270192507 10.354044171265235 0.27273478898657066 0.9290707836264365 0.24329343086279287 1 
100 3.112130258506495 7.09294371613691 0.34202324833061504 0.9789742015612612 0.3565297444110722 1 
100
Time=401 Lattice="20.0 0.00000000 0.00000000 0.00000000 25.0 0.00000000 0.00000000 0.00000000 0.000000000000000001" Properties=id:I:1:pos:R:2:radius:R:1:color:R:3
1 4.746152611540714 14.7972029598892 0.3242137726971337 0.7498636895917763 0.06690862785829538 1 
2 10.618484066079725 20.97043319644438 0.2660875590329283 0.43942628591927024 0.003682737392234181 1 
3 18.836106502814292 6.527044492844474 0.2582049490583301 0.007144452701571158 0.41577761878712893 1 
4 7.5207672351914745 10.382098592034662 0.2506137036593739 0.7157503615562848 0.048943704745923744 1 
5 16.39537610284395 17.98078497958844 0.2559435265530743 0.27296377106966774 0.05451762015418188 1 
6 16.20376670488207 17.049632363886868 0.3114801879552943 0.27153240559934555 0.05525000471188529 1 
7 17.26345849983672 5.4193232218702 0.2603715750779759 8.087803974954344E-4 0.47157243816708744 1 
8 10.023459865137543 7.2692872664758115 0.25902088904232234 0.5168359041711398 2.835280574191579E-4 1 
9 5.646253582781226 6.316326750902072 0.3061345217927378 0.9502851704323807 0.2826448406669815 1 
10 1.0060440624879665 23.002498384771844 0.3172645020840095 0.7254387884061253 0.0537070998974124 1 
11 14.771443781780834 10.981202329684224 0.26511583250915205 0.1847236748870239 0.11192676100604798 1 
12 18.096972462602803 14.13777085114717 0.2525938292436375 0.20348178381850923 0.09741218663185208 1 
13 14.186695433002043 17.563092376472227 0.28812354193812206 0.35808591480588725 0.020562420722448904 1 
14 3.412247942152506 9.45073372392279 0.2564077232867689 0.932624563814074 0.24932892710828752 1 
15 4.742162622206175 7.882811370355512 0.347966580977338 0.9590681209096941 0.30186756862027236 1 
16 3.0414004521569544 19.223400156484544 0.29101476076591676 0.722272062164718 0.05212152275305326 1 
17 17.145707517935765 9.33638627873663 0.32950353735127713 0.07096676613043695 0.24323067894426165 1 
18 10.042645177073764 12.819615383363287 0.3263994109733778 0.5036617847687732 1.3408847490015141E-5 1 
19 18.26574545132469 12.079946409257566 0.2792573058982623 0.11337363916203497 0.18295101781397932 1 
20 14.039896504221247 15.231741601491864 0.2794953564909307 0.3124662097543046 0.03650126481716964 1 
21 15.895003938604408 15.752480745090754 0.2709639374240532 0.2565384175127191 0.0632775963466164 1 
22 10.577256768293937 5.299912830507658 0.32743072225842873 0.04977180028888489 0.7174731435945327 1 
23 6.250818937584073 11.49787364859423 0.29062280195333523 0.7547200431198096 0.0697469353589188 1 
24 7.133828625735242 14.87750919755314 0.25119264157341703 0.6422736445487487 0.020668997386131593 1 
25 13.123287035324397 23.12201853983981 0.323460832509082 0.41244650468165767 0.007725294720985043 1 
26 6.637354240824632 24.063617704365832 0.28967276251655016 0.5902579521822454 0.008213967189116378 1 
27 18.077760580295546 20.994149996273897 0.2905010750718282 0.2724267225204866 0.05479173033597812 1 
28 8.68053811752728 15.207178747841454 0.34854240134428255 0.5758289618785879 0.00578348010167079 1 
29 18.869607948036325 22.95620893848137 0.3404827630458971 0.2765642495906605 0.05270092171007623 1 
30 5.2397728406063875 19.81504778344748 0.33036989946324913 0.6389936058461048 0.019707612454769707 1 
31 1.3070071071890506 6.332451926597882 0.33662692820567386 0.9943561424807517 0.4250866874877989 1 
32 6.697543631452302 20.572228184857707 0.28739983047708817 0.6068885065376951 0.011558757709649259 1 
33 9.973324021832411 23.003656156382895 0.2716505376378289 0.5035131366656491 1.2342281563437751E-5 1 
34 7.23834315430154 22.359315144375515 0.26609297235303775 0.581370059495561 0.0066655156816129435 1 
35 6.946748065114943 8.356611475620786 0.30953881931988075 0.9192762861161243 0.22758965529798636 1 
36 2.999832157201306 12.063246134998233 0.3215686239584163 0.9311412986960815 0.24678629468637325 1 
37 3.933407618973186 15.248203346426957 0.2514871222948705 0.7477763965301325 0.06571109003044695 1 
38 14.583433670029658 9.612497826529824 0.25325108594710327 0.15455880818655526 0.1385164139293364 1 
39 7.515309425150825 11.510603312258612 0.29528075629062495 0.6849051643998578 0.03544636458395728 1 
40 2.1854294204253533 11.478183049225372 0.3121160795933567 0.9246344642964778 0.23601975124709923 1 
41 1.117338001426368 20.397350646005396 0.34291632484486995 0.7452949702931522 0.06430471938649412 1 
42 13.905394685305858 19.563382809205656 0.28083968194775866 0.3721112692629909 0.016632156064890047 1 
43 8.973706636299449 18.006557160299163 0.2777661706500398 0.49815899520162765 3.389310155033076E-6 1 
44 11.547485229193935 22.566260053048143 0.3458132059625825 0.45331336656284094 0.0021844134036135276 1 
45 8.177461725829591 8.478405871786189 0.29889665669353094 0.7419438060487004 0.062434925165788746 1 
46 17.264110466294433 7.431274309428799 0.29340646056760455 0.025207660216073458 0.3432446680890744 1 
47 10.2949304651372 15.542865372660755 0.2616807979543726 0.4812887940745702 3.5023188956029294E-4 1 
48 3.5925154737073273 18.048685953676067 0.34010522697093537 0.7223117631414226 0.05214122765211798 1 
49 10.510953876198702 19.64070016290402 0.32756936633106565 0.478095188364415 4.80051221966149E-4 1 
50 15.54314001631803 22.120878769355052 0.27934558759599637 0.3434822622602324 0.02512928309609852 1 
51 19.22118262660119 18.628432927133353 0.2953368537112999 0.1857528782596476 0.11109288193978228 1 
52 15.829753907105461 13.32786561872564 0.3182092890925798 0.2099722411553374 0.09271152839843083 1 
53 1.2144770878827855 12.797681379229479 0.3463973721329374 0.8555019183496559 0.14840593570181732 1 
54 18.91564999794587 17.050856245186626 0.3198846227161169 0.14849118175964932 0.14441379287256922 1 
55 6.1219465984302985 19.410715445529437 0.3395508532834112 0.6545122178307162 0.024472950778787694 1 
56 13.018332214926371 19.1167213251023 0.3372525773420708 0.3847605538978456 0.013461337546471386 1 
57 6.075198735352591 16.982661969437267 0.2889944108432957 0.6592004764106297 0.02602193266921249 1 
58 9.773493541459706 17.64207650994743 0.25750740763657454 0.5554389454162899 0.0030829814434510383 1 
59 1.6568168729608233 9.226398686110764 0.3334026217346624 0.9405310357626178 0.26349966907017813 1 
60 5.432093115058422 7.10986866417102 0.30480545323584224 0.9524122780490382 0.28710770171168765 1 
61 2.351225874798155 12.25037875966269 0.2846913906502013 0.8645456123643576 0.15779173518762651 1 
62 1.5782376090339834 15.640013311317144 0.3090601229104327 0.8125638599520973 0.10973876255532927 1 
63 5.01112228330356 9.222065200114951 0.340643215762537 0.8842661853511453 0.18009454709917933 1 
64 14.952129492080873 19.539485796337075 0.3247306410645542 0.33932170046565413 0.026520872626098757 1 
65 17.38671966812739 20.00409704310157 0.2653596313766933 0.27671157811441127 0.0526273581768289 1 
66 4.7967042556116395 18.00055025251762 0.3184166306440472 0.6897342116294004 0.0373976557156569 1 
67 13.60900038976364 11.183533209110687 0.32155459889795157 0.2361678570882742 0.07527349933562344 1 
68 4.756720981101964 11.516520804573972 0.2719608793612291 0.8170231723299137 0.11335247549495697 1 
69 10.634343166003271 10.746922344891074 0.26660827726244696 0.43663245140534135 0.004031700826450435 1 
70 4.8666922487243465 20.72580784316742 0.3163330726085004 0.6538584774099873 0.024261028578611787 1 
71 3.7787427311418513 8.663036193473651 0.26422407736572706 0.9246665712113387 0.23607140493003587 1 
72 6.051541717684739 9.749892349031589 0.3076338761673365 0.825109090351797 0.12012623232101555 1 
73 15.45744600301246 6.013032007921374 0.2811958514605782 0.008105639659516495 0.4103342971631486 1 
74 2.1897473675748422 21.318446002107343 0.33100066539149026 0.9474844966431487 0.2769358270272256 1 
75 13.91024733376524 10.214658366662452 0.3264816801278194 0.1894239500755276 0.10815498317152017 1 
76 19.227205404534516 16.030716652726962 0.31095481486547294 0.22570993117163735 0.0819510098778708 1 
77 17.46841157691475 14.592943260834163 0.291343582905033 0.2013511248919605 0.09899021284175291 1 
78 18.619101555616577 11.05377416246123 0.2718094892387798 0.11545176401617624 0.18043364663699435 1 
79 12.88018493004501 17.100816137711327 0.28515880052539533 0.3804094343779604 0.014512516521588747 1 
80 7.508516277348606 13.464833925888943 0.3222230415322154 0.6443630911913056 0.021294142607706568 1 
81 17.277141578449893 13.178168817695843 0.25361077710610186 0.16514933653935587 0.12868472536136294 1 
82 2.8061715745569082 8.752775859497833 0.2909650107677771 0.9378358472559387 0.2585465451527472 1 
83 6.153629140991447 23.091723224701244 0.2628615786297111 0.605579446012866 0.011274125322163542 1 
84 19.339667599794392 12.10613347001334 0.2626509875529789 0.07027295548984203 0.24439353056590157 1 
85 7.846856354972773 16.458417451449172 0.3350901778391919 0.5964523676649426 0.009391254896708223 1 
86 1.8555214268989106 10.889105690660637 0.31285295830952786 0.943092598977337 0.26833440321983754 1 
87 4.350839751296318 13.35721070102673 0.3041126675736277 0.7841853890085431 0.08861372814098056 1 
88 1.589797248019931 13.947141582592714 0.32091980686949123 0.9834722524068427 0.37250654466736666 1 
89 2.5424570457881734 22.535978043494126 0.30290387825742415 0.6979365920031966 0.04084740494454342 1 
90 13.272152767505142 8.726872412833027 0.3094270835772598 0.16453662429338856 0.1292381848686075 1 