10
Time=1 Lattice="20.0 0.00000000 0.00000000 0.00000000 25.0 0.00000000 0.00000000 0.00000000 0.000000000000000001" Properties=id:I:1:pos:R:2:radius:R:1:color:R:3
1 8.038139377981194 18.382544921740706 0.3255819003921372 0.5759721860398525 0.005805476610347249 1 
2 0.2852142362280536 7.171433880677886 0.31620317943763265 0.9995572909289159 0.47896400513970255 1 
3 10.352325861546698 21.897169691795828 0.32836340012980947 0.48675524943289405 1.7545420176179327E-4 1 
4 5.24810247940254 6.383228618020237 0.2561330476710261 0.9808070604164858 0.36279733729384933 1 
5 17.430094336271203 14.895155681942315 0.2923718891180707 0.19732568878375917 0.10201977268993101 1 
6 7.594818950460107 10.87424858953727 0.342277455158032 0.695415956528824 0.039768966785240834 1 
7 13.719576068993844 10.781002699779691 0.3352634978015809 0.22460186904401847 0.08268013530871549 1 
8 5.366232042670252 23.825494921539324 0.3233191480880958 0.6218210586762449 0.01506739678281177 1 
9 16.00686881443072 18.936751475590746 0.3167680743441217 0.2994535284371901 0.041981318346394236 1 
10 8.342144490005017 11.909036626375107 0.3335671315255285 0.6233432392068692 0.015452329133699094 1 
10
Time=201 Lattice="20.0 0.00000000 0.00000000 0.00000000 25.0 0.00000000 0.00000000 0.00000000 0.000000000000000001" Properties=id:I:1:pos:R:2:radius:R:1:color:R:3
1 8.111071765123608 17.908124108323467 0.3255819003921372 0.5759721860519852 0.0058054766122124235 1 
2 0.8893794120902815 7.1009224292867525 0.31620317943763265 0.9937697760282781 0.4213144976442033 1 
3 10.336452635776027 21.298152910123346 0.32836340012980947 0.48675524942916465 1.7545420186060312E-4 1 
4 5.4199436751940935 6.334192171668306 0.2561330476710261 0.9808070604186525 0.36279733730144215 1 
5 17.163309142965414 14.54436531770575 0.2923718891180707 0.19732568878612428 0.10201977268813228 1 
6 7.6833081748934156 10.665781842033578 0.342277455158032 0.6953076046474466 0.03972297519116086 1 
7 13.584331408886525 10.576062008810213 0.3352634978015809 0.2246018690218407 0.08268013532335106 1 
8 5.53388546073923 23.158117627766895 0.3233191480880958 0.621821058674031 0.01506739678225566 1 
9 15.790537986396917 18.442683642447278 0.3167680743441217 0.2994535284241584 0.04198131835210023 1 
10 8.40445886768861 11.664326746732371 0.3335671315255285 0.6234349896707615 0.015475693772769528 1 
10
Time=401 Lattice="20.0 0.00000000 0.00000000 0.00000000 25.0 0.00000000 0.00000000 0.00000000 0.000000000000000001" Properties=id:I:1:pos:R:2:radius:R:1:color:R:3
1 8.29001812609721 16.744088740008085 0.3255819003921372 0.5759721860525934 0.005805476612305904 1 
2 1.9082604380541777 6.916291514525234 0.31620317943763265 0.990725334299744 0.4041425731807673 1 
3 10.297506207450429 19.82840980366109 0.32836340012980947 0.48675524942896653 1.7545420186582117E-4 1 
4 5.841571951142123 6.21387671274261 0.2561330476710261 0.9808070604188661 0.362797337302191 1 
5 16.508726983053883 13.683668697136012 0.2923718891180707 0.1973256887857091 0.10201977268844797 1 
6 7.900158314458047 10.153920567128603 0.342277455158032 0.6946582767814212 0.039447988517596844 1 
7 13.252496119857174 10.073221058436802 0.3352634978015809 0.22460186902115592 0.08268013532380292 1 
8 5.945238636510683 21.52064567883094 0.3233191480880958 0.6218210586744827 0.015067396782369069 1 
9 15.259750280699638 17.23044249311212 0.3167680743441217 0.29945352842423795 0.04198131835206542 1 
10 8.557619321186891 11.064277230262599 0.3335671315255285 0.6239857014544099 0.015616323732046133 1 
10
Time=601 Lattice="20.0 0.00000000 0.00000000 0.00000000 25.0 0.00000000 0.00000000 0.00000000 0.000000000000000001" Properties=id:I:1:pos:R:2:radius:R:1:color:R:3
1 8.528269090663809 15.194280474666314 0.3255819003921372 0.575972186052798 0.005805476612337324 1 
2 3.1276457775998145 6.666963186195999 0.31620317943763265 0.9891654574844597 0.3964763060743135 1 
3 10.24565254546833 17.871579215584866 0.32836340012980947 0.4867552494297319 1.754542018455596E-4 1 
4 6.402932030700901 6.053687514230779 0.2561330476710261 0.9808070604191943 0.36279733730334063 1 
5 15.6372097857334 12.537728657150202 0.2923718891180707 0.1973256887858652 0.10201977268832929 1 
6 8.186941688827783 9.469746757080875 0.342277455158032 0.691015810658453 0.037925373907532034 1 
7 12.810687316046266 9.403733616513318 0.3352634978015809 0.22460186902187407 0.08268013532332902 1 
8 6.49291834551276 19.340499241873367 0.3233191480880958 0.6218210586747998 0.015067396782448783 1 
9 14.553054250816647 15.616452571525436 0.3167680743441217 0.29945352842435546 0.04198131835201391 1 
10 8.76347173006197 10.268041955067876 0.3335671315255285 0.6271030067102891 0.01642495340929323 1 
10
Time=801 Lattice="20.0 0.00000000 0.00000000 0.00000000 25.0 0.00000000 0.00000000 0.00000000 0.000000000000000001" Properties=id:I:1:pos:R:2:radius:R:1:color:R:3
1 8.790639454827925 13.487576958478135 0.3255819003921372 0.5759721860527867 0.005805476612335603 1 
2 4.401446625300262 6.3906281368043025 0.31620317943763265 0.9881637372052576 0.39185118734911506 1 
3 10.18854946426228 15.716648363852409 0.32836340012980947 0.48675524942982235 1.7545420184317262E-4 1 
4 7.021121546821378 5.87728151971568 0.2561330476710261 0.9808070604190968 0.36279733730299935 1 
5 14.677464313765917 11.275779073242937 0.2923718891180707 0.19732568878665663 0.10201977268772738 1 
6 8.491253742539225 8.700381481246605 0.342277455158032 0.6732144108454364 0.03096186948663937 1 
7 12.324151880787007 8.666470435816535 0.3352634978015809 0.22460186902224732 0.08268013532308272 1 
8 7.096042555134085 16.939645102060233 0.3233191480880958 0.6218210586743326 0.015067396782331377 1 
9 13.774815660886258 13.839069952094938 0.3167680743441217 0.29945352842392425 0.04198131835220276 1 
10 9.001667573790822 9.407128539218062 0.3335671315255285 0.6430622464035404 0.02090377411842126 1 
10
Time=1001 Lattice="20.0 0.00000000 0.00000000 0.00000000 25.0 0.00000000 0.00000000 0.00000000 0.000000000000000001" Properties=id:I:1:pos:R:2:radius:R:1:color:R:3
1 9.051972249052389 11.787622771131243 0.3255819003921372 0.575972185601106 0.005805476542899035 1 
2 5.628208914394521 6.114311411060468 0.31620317943763265 0.9874183311329418 0.3885398256076281 1 
3 10.131672203068794 13.570239401235952 0.32836340012980947 0.4867552497132162 1.7545419433356857E-4 1 
4 7.636866371046658 5.701573140253844 0.2561330476710261 0.9808070604371214 0.3627973373661638 1 
5 13.721514250938318 10.018819994669085 0.2923718891180707 0.19732568888294122 0.10201977261450046 1 
6 8.761078797700396 7.887972481068158 0.342277455158032 0.6442130156418964 0.021248910059235293 1 
7 11.83954049839535 7.932122835843045 0.3352634978015809 0.2246018690235292 0.08268013532223673 1 
8 7.696781649959877 14.548285379212194 0.3233191480880958 0.6218210586740869 0.015067396782269649 1 
9 12.999654692997334 12.068716169431834 0.3167680743441217 0.2994535283495963 0.04198131838474772 1 
10 9.272205014523314 8.59570594727546 0.3335671315255285 0.67198329304755 0.030509055558554432 1 
10
Time=1201 Lattice="20.0 0.00000000 0.00000000 0.00000000 25.0 0.00000000 0.00000000 0.00000000 0.000000000000000001" Properties=id:I:1:pos:R:2:radius:R:1:color:R:3
1 9.295478897036997 10.20362558760961 0.3255819003921372 0.5759718801584737 0.0058054295875090145 1 
2 6.743036448066824 5.856120023435009 0.31620317943763265 0.9867995678928223 0.3858677052742677 1 
3 10.079459137850794 11.570241420301349 0.32836340012980947 0.4879809203251506 1.4447915045529003E-4 1 
4 8.210610219369169 5.537850126974208 0.2561330476710261 0.9808070658778907 0.36279735643256134 1 
5 12.83077143466087 8.847600521564386 0.2923718891180707 0.19732575460912027 0.10201972262804088 1 
6 8.991043709795983 7.101271937044282 0.342277455158032 0.6405091794822222 0.020148803813898275 1 
7 11.387985411778564 7.247866527617324 0.3352634978015809 0.2246018758348225 0.08268013082732151 1 
8 8.256543150112009 12.320045000836043 0.3233191480880958 0.6218210572013664 0.01506739641230409 1 
9 12.27736896245676 10.419121738200909 0.3167680743441217 0.2994534778604416 0.04198134049175728 1 
10 9.54574341289024 7.869339648927204 0.3335671315255285 0.6759702458216302 0.031988811474047085 1 
10
Time=1401 Lattice="20.0 0.00000000 0.00000000 0.00000000 25.0 0.00000000 0.00000000 0.00000000 0.000000000000000001" Properties=id:I:1:pos:R:2:radius:R:1:color:R:3
1 9.511039028869634 8.801086577506089 0.3255819003921372 0.5758709191281778 0.005789919537606436 1 
2 7.709693817836566 5.6270186434106835 0.31620317943763265 0.9862366144559325 0.383492683652773 1 
3 10.043031458618808 9.799521583620592 0.32836340012980947 0.49149684391983217 7.230889189951961E-5 1 
4 8.718680422010797 5.392848681711127 0.2561330476710261 0.9807670200954024 0.3626570992421269 1 
5 12.0421158374266 7.81059163109082 0.2923718891180707 0.19734938535523605 0.10200175194462652 1 
6 9.2003461795061 6.412618640779198 0.342277455158032 0.6516974633285894 0.02356754978310799 1 
7 10.988183874185205 6.642026256144368 0.3352634978015809 0.22462098694720167 0.08266751963204838 1 
8 8.752152644951728 10.347168546900173 0.3233191480880958 0.621818646918853 0.015066790925946372 1 
9 11.637854169972437 8.958590814771123 0.3167680743441217 0.29943535882883393 0.04198927445759376 1 
10 9.782247468819778 7.218351234294947 0.3335671315255285 0.6642105784440142 0.027734305790604485 1 
10
Time=1601 Lattice="20.0 0.00000000 0.00000000 0.00000000 25.0 0.00000000 0.00000000 0.00000000 0.000000000000000001" Properties=id:I:1:pos:R:2:radius:R:1:color:R:3
1 9.688699836977674 7.602392298562586 0.3255819003921372 0.5639570924391379 0.004107380245751635 1 
2 8.499727623321222 5.435747543888009 0.31620317943763265 0.9856235225732279 0.3809630547957079 1 
3 10.027907493427877 8.30807556120685 0.32836340012980947 0.504162620784646 1.732771204637773E-5 1 
4 9.156068158103396 5.250820060292575 0.2561330476710261 0.9536751939874726 0.28981242101296945 1 
5 11.374445375785202 6.929228654597955 0.2923718891180707 0.20112349389781659 0.0991598397114487 1 
6 9.39691170606347 5.861586370517341 0.342277455158032 0.728518940464697 0.055276384876075835 1 
7 10.651597779852978 6.126829017904295 0.3352634978015809 0.23646835748548972 0.07508698137900699 1 
8 9.171441545255313 8.675110155350957 0.3233191480880958 0.6205506869986384 0.01475003156707333 1 
9 11.094915377322165 7.7228050576987854 0.3167680743441217 0.2965702600153196 0.043254621381052905 1 
10 9.968461748414535 6.6512142319932925 0.3335671315255285 0.6422049376083308 0.02064860934820395 1 
10
Time=1801 Lattice="20.0 0.00000000 0.00000000 0.00000000 25.0 0.00000000 0.00000000 0.00000000 0.000000000000000001" Properties=id:I:1:pos:R:2:radius:R:1:color:R:3
1 9.735639831249808 6.766428743428437 0.3255819003921372 0.46961665700923505 9.24001309714817E-4 1 
2 8.616870767204455 5.410704952267903 0.31620317943763265 0.013075536774358965 0.6135982707281292 1 
3 10.164902351248973 7.2460365047673125 0.32836340012980947 0.6838143516840517 0.03501367319568227 1 
4 9.315953785729226 5.257749834731652 0.2561330476710261 0.5110070513690617 1.2116986197663326E-4 1 
5 10.877997403056401 6.144098452047914 0.2923718891180707 0.30299661774611547 0.04044623015306481 1 
6 9.626253697071645 5.704150034652685 0.342277455158032 0.46679804214453735 0.0011035879117147762 1 
7 10.482001626274979 5.578031954337447 0.3352634978015809 0.4819542858744034 3.257539139152055E-4 1 
8 9.433589549254563 7.347931678523297 0.3233191480880958 0.5279258868666361 7.804642817832996E-4 1 
9 10.638799340605587 6.793151146595415 0.3167680743441217 0.28788997473126515 0.04722043201962317 1 
10 10.120256934206866 6.211597491389241 0.3335671315255285 0.9817395596596028 0.366108265158106 1 
10
Time=2001 Lattice="20.0 0.00000000 0.00000000 0.00000000 25.0 0.00000000 0.00000000 0.00000000 0.000000000000000001" Properties=id:I:1:pos:R:2:radius:R:1:color:R:3
1 9.61357918428022 6.341560840761807 0.3255819003921372 0.06280419071380589 0.2573895625852223 1 
2 8.454826191836343 5.446715454263862 0.31620317943763265 0.009324320406825959 0.5961112764236164 1 
3 10.242039425585197 7.0466412785401165 0.32836340012980947 0.5752422709016007 0.005693818904143055 1 
4 9.27844920261039 5.244911964508951 0.2561330476710261 0.4186511296109756 0.9933379787594198 1 
5 10.952589938278825 5.4483326358241335 0.2923718891180707 0.6882953921274526 0.036810141190927126 1 
6 9.716785827750217 5.626352713848551 0.342277455158032 0.6819338145276972 0.965725334431574 1 
7 10.40783659643923 4.72429664426359 0.3352634978015809 0.43826164630445297 0.0038262646179631488 1 
8 9.204740040335722 6.932478719459462 0.3233191480880958 0.09975894193794954 0.2003216800611523 1 
9 10.964262729625718 6.462192362105532 0.3167680743441217 0.9825183111323219 0.36894245759204936 1 
10 10.411782058747955 6.007088885764814 0.3335671315255285 0.9998993277412893 0.489966948429964 1 
10
Time=2201 Lattice="20.0 0.00000000 0.00000000 0.00000000 25.0 0.00000000 0.00000000 0.00000000 0.000000000000000001" Properties=id:I:1:pos:R:2:radius:R:1:color:R:3
1 9.598906669992349 6.456699568232274 0.3255819003921372 0.7681273672479143 0.9220280973261166 1 
2 8.412256252916734 5.450498649085106 0.31620317943763265 0.020504813113263742 0.35828067967826727 1 
3 10.255471014381168 6.893315165845771 0.32836340012980947 0.5888469113543663 0.007957088921312305 1 
4 9.118728065273602 5.319755448274966 0.2561330476710261 4.042059262687192E-4 0.4798991904680965 1 
5 11.040109514365602 5.48564131277543 0.2923718891180707 0.7756078317540342 0.9171814030800509 1 
6 9.903109682516812 5.606783807361624 0.342277455158032 0.8412600691899638 0.13456660637475787 1 
7 10.302634581595592 3.958772233302736 0.3352634978015809 0.4264200673270222 0.005443639705402181 1 
8 8.874827774792013 6.820247128951988 0.3233191480880958 0.00980586536093453 0.40146213740161735 1 
9 11.46299607479816 6.367025977138606 0.3167680743441217 0.9878393589578643 0.39039726348498405 1 
10 10.670963367850183 5.969034105373806 0.3335671315255285 0.6403618121712596 0.979894323454654 1 
10
Time=2401 Lattice="20.0 0.00000000 0.00000000 0.00000000 25.0 0.00000000 0.00000000 0.00000000 0.000000000000000001" Properties=id:I:1:pos:R:2:radius:R:1:color:R:3
1 9.59279374174306 6.437907842356046 0.3255819003921372 0.24167312608692954 0.07190278415492984 1 
2 8.378858567060298 5.445438855283986 0.31620317943763265 0.009949483470142628 0.40075035894865935 1 
3 10.321818867167721 6.827526427490105 0.32836340012980947 0.5049859537184872 0.99997513964748 1 
4 9.120256792284348 5.285923993085947 0.2561330476710261 0.9379917438863055 0.2588294539388506 1 
5 11.222929445527207 5.415004322150313 0.2923718891180707 0.8747465931814599 0.16899397150672707 1 
6 10.04793563569421 5.398831253771021 0.342277455158032 0.7504228192631304 0.06723168832237086 1 
7 10.2056511708846 3.349651415200049 0.3352634978015809 0.4157988195339518 0.007140830248514085 1 
8 8.61912653092604 6.7101732114256745 0.3233191480880958 0.13097585766427433 0.16262604965204847 1 
9 11.753317329990265 6.2514388994653896 0.3167680743441217 0.8938287155787443 0.1919432799213811 1 
10 10.617691368094839 6.2120314919435975 0.3335671315255285 0.8161982004567208 0.11267752708120404 1 
10
Time=2601 Lattice="20.0 0.00000000 0.00000000 0.00000000 25.0 0.00000000 0.00000000 0.00000000 0.000000000000000001" Properties=id:I:1:pos:R:2:radius:R:1:color:R:3
1 9.536033848746458 6.282812566158523 0.3255819003921372 0.41430497326574667 0.0073983735379920534 1 
2 8.387346592009905 5.429490204665988 0.31620317943763265 0.9499666609510997 0.28198622971812504 1 
3 10.27932771636671 7.024342387525966 0.32836340012980947 0.29774191608189615 0.9572654234575115 1 
4 9.247894706950353 5.275432039573317 0.2561330476710261 0.9776576567678803 0.647794326450706 1 
5 11.27888247161665 5.304371260983721 0.2923718891180707 0.4861588372648159 1.9161450197924257E-4 1 
6 10.144812744222675 5.214127942448835 0.342277455158032 0.7047552051335702 0.04384727779973774 1 
7 10.120930997286473 2.8858128576319615 0.3352634978015809 0.4036349052262431 0.00937410534171268 1 
8 8.532792684114028 6.528490906563987 0.3233191480880958 0.4604891461077569 0.001563552270998303 1 
9 11.834383066573132 6.098858490521647 0.3167680743441217 0.4937004456656052 3.9685959787372216E-5 1 
10 10.67995988344913 6.02969239149786 0.3335671315255285 0.5864976247951414 0.007538670650375889 1 
10
Time=2801 Lattice="20.0 0.00000000 0.00000000 0.00000000 25.0 0.00000000 0.00000000 0.00000000 0.000000000000000001" Properties=id:I:1:pos:R:2:radius:R:1:color:R:3
1 9.533370940073723 6.0933038550203 0.3255819003921372 0.5677956803391306 0.0046175762833783884 1 
2 8.483400259910905 5.390762429555068 0.31620317943763265 0.9638080679093992 0.3132325613439265 1 
3 10.224072929187331 7.052289526417221 0.32836340012980947 0.13244457355049144 0.16102653719277682 1 
4 9.383859894750648 5.29611649107634 0.2561330476710261 0.9997207210742671 0.4832906933412988 1 
5 11.242285222716811 5.3369672975130555 0.2923718891180707 6.381642222554884E-4 0.5252538505713671 1 
6 10.202435211801406 5.056073784762587 0.342277455158032 0.6337789275133624 0.01822910159145713 1 
7 10.0530486754201 2.5497264092082057 0.3352634978015809 0.4030583284744865 0.009487704209324155 1 
8 8.57069410545026 6.312147559493369 0.3233191480880958 0.6784607842730507 0.032932822308559484 1 
9 11.772377842787025 5.93603994369833 0.3167680743441217 0.21563748954832934 0.08873613986927625 1 
10 10.674133243550108 5.854215387164667 0.3335671315255285 0.29213704130868273 0.04525502707111567 1 
9
Time=3001 Lattice="20.0 0.00000000 0.00000000 0.00000000 25.0 0.00000000 0.00000000 0.00000000 0.000000000000000001" Properties=id:I:1:pos:R:2:radius:R:1:color:R:3
1 9.588384096821326 5.952696510331504 0.3255819003921372 0.8652926825752435 0.15858931467075843 1 
2 8.636215001491076 5.3112549556776765 0.31620317943763265 0.9697155635996649 0.32863113085437856 1 
3 10.166742227829058 6.938115370321926 0.32836340012980947 0.33795738321681623 0.026986056922147117 1 
4 9.492495488681886 5.238499972835345 0.2561330476710261 0.7917850839846916 0.09396864066423821 1 
5 11.177650175797936 5.30600841576761 0.2923718891180707 0.19104096704521323 0.8931212484153496 1 
6 10.235041691402099 4.869326174535806 0.342277455158032 0.5531052461608699 0.0028281656909822095 1 
7 8.685637745198946 6.115164447764503 0.3233191480880958 0.8281539552795095 0.12275342064584116 1 
8 11.664865255238608 5.826275417767667 0.3167680743441217 0.07202451163606743 0.24147150764441183 1 
9 10.550114255957018 5.786034936501763 0.3335671315255285 0.005660626785255918 0.42497610987389445 1 
9
Time=3201 Lattice="20.0 0.00000000 0.00000000 0.00000000 25.0 0.00000000 0.00000000 0.00000000 0.000000000000000001" Properties=id:I:1:pos:R:2:radius:R:1:color:R:3
1 9.665387661908046 5.912231545385485 0.3255819003921372 0.8053234190332731 0.10404847545459267 1 
2 8.746741788750032 5.311775268032299 0.31620317943763265 0.8582695122219186 0.8487735033116315 1 
3 10.112300248537975 6.738810485251456 0.32836340012980947 0.3887697892026045 0.012529139121150168 1 
4 9.570972961240034 5.084310538658686 0.2561330476710261 0.7141853838957061 0.0481984713112969 1 
5 11.047203545864802 5.302945679133394 0.2923718891180707 0.07078168402382129 0.7564598160152447 1 
6 10.261657552994604 4.558183505537799 0.342277455158032 0.5331237322077462 0.0010983880917706523 1 
7 8.836010949857874 6.0611124361389725 0.3233191480880958 0.9685957577825082 0.6744076139055776 1 
8 11.609912155861467 5.835651925961185 0.3167680743441217 0.11811323794843437 0.8227421586495494 1 
9 10.387143470052147 5.764050993126614 0.3335671315255285 0.03701606809183311 0.3111988379409335 1 
9
Time=3401 Lattice="20.0 0.00000000 0.00000000 0.00000000 25.0 0.00000000 0.00000000 0.00000000 0.000000000000000001" Properties=id:I:1:pos:R:2:radius:R:1:color:R:3
1 9.60594296851428 5.863813043786413 0.3255819003921372 0.3228436018426699 0.03243651704616457 1 
2 8.823064256489895 5.318006787659233 0.31620317943763265 0.9046040138551311 0.2062388862148074 1 
3 10.077895178882844 6.5330413550361355 0.32836340012980947 0.4718791860422092 7.91406501899905E-4 1 
4 9.64990516290356 4.924816828811982 0.2561330476710261 0.6902143786019077 0.037594885221746144 1 
5 10.941001087023961 5.286014621258043 0.2923718891180707 0.04342505556729476 0.7038119724556733 1 
6 10.275416505952752 4.194778552149658 0.342277455158032 0.5035196877506752 1.23883553336257E-5 1 
7 8.94118574228248 6.179761030225964 0.3233191480880958 0.533686370132946 0.9988639378300121 1 
8 11.545078904076089 5.86719483399964 0.3167680743441217 0.008680665929762355 0.5927648207499923 1 
9 10.382213896811418 5.712096442079903 0.3335671315255285 0.36990677668579636 0.01722080280140409 1 
9
Time=3601 Lattice="20.0 0.00000000 0.00000000 0.00000000 25.0 0.00000000 0.00000000 0.00000000 0.000000000000000001" Properties=id:I:1:pos:R:2:radius:R:1:color:R:3
1 9.563654861324103 5.681968439650052 0.3255819003921372 0.36986678909564924 0.01723157992705887 1 
2 8.905188211835059 5.335152706268931 0.31620317943763265 0.9350519743812068 0.253565871708049 1 
3 10.079820077747325 6.433081781187462 0.32836340012980947 0.389372418521054 0.012392024043782535 1 
4 9.733695461684512 4.673131755489175 0.2561330476710261 0.6367486862827213 0.019063624998119033 1 
5 10.986448668828327 5.296937598204155 0.2923718891180707 0.7614293401767303 0.926209690287257 1 
6 10.266781633368696 3.83248434756801 0.342277455158032 0.473441459012463 7.058543297214781E-4 1 
7 8.916131504097677 6.327120975908497 0.3233191480880958 0.4426779739671638 0.9967033172141 1 
8 11.444582529229786 5.880258356179692 0.3167680743441217 0.01645421154994864 0.6272142699236929 1 
9 10.340017579342003 5.69146176744496 0.3335671315255285 0.3671034551645248 0.017984950057788607 1 
9
Time=3801 Lattice="20.0 0.00000000 0.00000000 0.00000000 25.0 0.00000000 0.00000000 0.00000000 0.000000000000000001" Properties=id:I:1:pos:R:2:radius:R:1:color:R:3
1 9.589412467914697 5.552433211618396 0.3255819003921372 0.8084509264229494 0.10647995478143135 1 
2 8.849644111350242 5.337093010115672 0.31620317943763265 0.0011295279594687457 0.533589464509836 1 
3 10.05942161377135 6.435472937992643 0.32836340012980947 3.6271549739325115E-4 0.5190416368745238 1 
4 9.812327397826131 4.362157989047242 0.2561330476710261 0.6111677271430734 0.012514885927946362 1 
5 11.007900912478702 5.3021823274933215 0.2923718891180707 0.9201980725175053 0.22901369065472443 1 
6 10.240532387637618 3.4971750393101146 0.342277455158032 0.4493421748487526 0.0025728347275898455 1 
7 8.940769530977757 6.378261882536587 0.3233191480880958 0.9995547217463397 0.4789030812454267 1 
8 11.367849575160314 5.949729691742009 0.3167680743441217 0.24141278895484192 0.927940012482926 1 
9 10.346780644446847 5.60150787324281 0.3335671315255285 0.5726939482561046 0.00531263419515271 1 
9
Time=4001 Lattice="20.0 0.00000000 0.00000000 0.00000000 25.0 0.00000000 0.00000000 0.00000000 0.000000000000000001" Properties=id:I:1:pos:R:2:radius:R:1:color:R:3
1 9.580225392710918 5.456517423156373 0.3255819003921372 0.2084764847466532 0.09378079802361428 1 
2 8.732072016722956 5.317798364038268 0.31620317943763265 0.0451409600312247 0.29238676882557785 1 
3 10.036370539479394 6.410358830274578 0.32836340012980947 0.3332036628806453 0.02864134470281915 1 
4 9.879766226217082 4.039335085572184 0.2561330476710261 0.5939908129901962 0.00891372746385799 1 
5 11.069750332012877 5.290497407332305 0.2923718891180707 0.9938027705174484 0.4215218257775304 1 
6 10.204887519610505 3.198863036179315 0.342277455158032 0.4335942281438533 0.00442934563859676 1 
7 9.026341841270224 6.332387150130649 0.3233191480880958 0.8940690336747961 0.192250756786288 1 
8 11.29424360723041 6.06121697137656 0.3167680743441217 0.17428087784121415 0.8793508316322899 1 
9 10.364720340628164 5.5481923066321475 0.3335671315255285 0.6806845241523737 0.03378856434893157 1 
9
Time=4201 Lattice="20.0 0.00000000 0.00000000 0.00000000 25.0 0.00000000 0.00000000 0.00000000 0.000000000000000001" Properties=id:I:1:pos:R:2:radius:R:1:color:R:3
1 9.511092118717283 5.342784440315164 0.3255819003921372 0.34794713006649913 0.023680858305079378 1 
2 8.680475995157353 5.332732063202 0.31620317943763265 4.512355438013316E-5 0.4932827447387351 1 
3 10.025953146499473 6.339477363399588 0.32836340012980947 0.5029667680023351 8.80178985118718E-6 1 
4 9.932078778308247 3.741011239167902 0.2561330476710261 0.5783994265236576 0.006184720851246217 1 
5 11.160275251113646 5.296586682195389 0.2923718891180707 0.9474617594601673 0.7231097797516087 1 
6 10.168333570983018 2.934240353109873 0.342277455158032 0.4323931372644559 0.004591772261443694 1 
7 9.140065122535505 6.224702613173826 0.3233191480880958 0.8339865947492369 0.12790733072551796 1 
8 11.181762045202616 6.144480934069284 0.3167680743441217 0.039948838919809604 0.6958390389804053 1 
9 10.356015532852707 5.517369842504117 0.3335671315255285 0.29452583420237066 0.04417068195456281 1 
9
Time=4401 Lattice="20.0 0.00000000 0.00000000 0.00000000 25.0 0.00000000 0.00000000 0.00000000 0.000000000000000001" Properties=id:I:1:pos:R:2:radius:R:1:color:R:3
1 9.511539664314327 5.2120535735550515 0.3255819003921372 0.6017304909347065 0.010458472431415067 1 
2 8.6622729623843 5.317241060081903 0.31620317943763265 0.4433688472568551 0.0032174393771631227 1 
3 10.047907214323072 6.259804729644661 0.32836340012980947 0.7762965443613905 0.0832744073446482 1 
4 9.967130900124275 3.497515572584514 0.2561330476710261 0.5642652183362193 0.004147217702473671 1 
5 11.199257427703733 5.2925666966659835 0.2923718891180707 0.61731272690441 0.9860429241396806 1 
6 10.137258699197217 2.690715163100793 0.342277455158032 0.4407443470966508 0.003523648499752008 1 
7 9.23283494917369 6.090244479521844 0.3233191480880958 0.7124237800831561 0.04736754683829514 1 
8 11.031720158675796 6.17200442751083 0.3167680743441217 3.329561680281978E-5 0.49422986064252233 1 
9 10.338281712521923 5.443956505934662 0.3335671315255285 0.45191623310045126 0.002317419070398008 1 
8
Time=4601 Lattice="20.0 0.00000000 0.00000000 0.00000000 25.0 0.00000000 0.00000000 0.00000000 0.000000000000000001" Properties=id:I:1:pos:R:2:radius:R:1:color:R:3
1 9.545145148426291 5.058967531689366 0.3255819003921372 0.5839643255117999 0.007100423979337855 1 
2 8.678310280409312 5.325671753239052 0.31620317943763265 0.9733452829649669 0.33892783265003396 1 
3 10.100156583845546 6.199251079467118 0.32836340012980947 0.7183549818632762 0.05019881959304695 1 
4 9.989579940018425 3.313637549046632 0.2561330476710261 0.5588986275249533 0.003481166846939443 1 
5 11.184551280588417 5.295207810915723 0.2923718891180707 0.09832272001781878 0.20224949580879564 1 
6 9.278552680869314 5.951753654462125 0.3233191480880958 0.6390222838341563 0.019715912612612907 1 
7 10.881313086213627 6.144157062932176 0.3167680743441217 0.0438725315703814 0.2951885439141958 1 
8 10.338860009471983 5.327152675674594 0.3335671315255285 0.5310101897506666 9.62558387020751E-4 1 
8
Time=4801 Lattice="20.0 0.00000000 0.00000000 0.00000000 25.0 0.00000000 0.00000000 0.00000000 0.000000000000000001" Properties=id:I:1:pos:R:2:radius:R:1:color:R:3
1 9.559098433281545 4.856214033939003 0.3255819003921372 0.5036144551371591 1.3064456618583353E-5 1 
2 8.715802609821749 5.322642196804097 0.31620317943763265 0.9649230143247085 0.3160255703875484 1 
3 10.051149058518378 6.1490301923024315 0.32836340012980947 0.056387495512555064 0.26933152390849624 1 
4 10.009258117212799 3.150513007769345 0.2561330476710261 0.5607697007814776 0.003706696129264997 1 
5 11.153165686336934 5.294085164577747 0.2923718891180707 0.12179591094208947 0.17295005424266452 1 
6 9.323966177959692 5.834360955056635 0.3233191480880958 0.7151703591536561 0.048666734505768305 1 
7 10.850746834157585 6.073571714591691 0.3167680743441217 0.6700407811704338 0.029802028142455028 1 
8 10.341234870671158 5.208007012043341 0.3335671315255285 0.44755765119120794 0.002757805439424721 1 
8
Time=5001 Lattice="20.0 0.00000000 0.00000000 0.00000000 25.0 0.00000000 0.00000000 0.00000000 0.000000000000000001" Properties=id:I:1:pos:R:2:radius:R:1:color:R:3
1 9.559555781125992 4.5322694229008915 0.3255819003921372 0.506909387590312 4.77419161636905E-5 1 
2 8.725545685461617 5.317190636477605 0.31620317943763265 0.25406223574146647 0.9353327648035626 1 
3 10.028354443747151 6.126446191064929 0.32836340012980947 0.999807805134842 0.5138621039633864 1 
4 10.028092264679303 2.998568500050263 0.2561330476710261 0.5622103354902865 0.0038852207823415474 1 
5 11.140019336587084 5.294110605478379 0.2923718891180707 0.3594605070671057 0.02015768118457395 1 
6 9.362822714750111 5.7258677607250705 0.3233191480880958 0.6691190382888017 0.029469713102046047 1 
7 10.87190623449646 6.005250386184031 0.3167680743441217 0.48715990010007354 1.6489535591851512E-4 1 
8 10.304208312818128 5.109845977686963 0.3335671315255285 0.21589455768142896 0.08855851248935881 1 
8
Time=5201 Lattice="20.0 0.00000000 0.00000000 0.00000000 25.0 0.00000000 0.00000000 0.00000000 0.000000000000000001" Properties=id:I:1:pos:R:2:radius:R:1:color:R:3
1 9.576729857013353 4.16498695356464 0.3255819003921372 0.5410379998995184 0.0016869632808638735 1 
2 8.676910537088936 5.32263212792421 0.31620317943763265 3.826779379265677E-4 0.5195584123977999 1 
3 10.082315547582416 6.136823288572461 0.32836340012980947 0.9540792953612256 0.7093131470411089 1 
4 10.045127538230238 2.8640715827624947 0.2561330476710261 0.5634504130030893 0.004042295059611567 1 
5 11.136817379909502 5.293289617054937 0.2923718891180707 0.22450711833904985 0.08274267872912555 1 
6 9.438769042597142 5.6157822621533064 0.3233191480880958 0.8310647540370968 0.12530528608698438 1 
7 10.855853306942969 5.996938728247243 0.3167680743441217 0.18465684984098107 0.8880189398055028 1 
8 10.23072950336238 5.030051953605489 0.3335671315255285 0.13196404088681923 0.1615483301863601 1 
8