10
Time=1 Lattice="20.0 0.00000000 0.00000000 0.00000000 25.0 0.00000000 0.00000000 0.00000000 0.000000000000000001" Properties=id:I:1:pos:R:2:radius:R:1:color:R:3
1 4.397343122687782 9.041313579308568 0.32302421052830754 0.9079144168022706 0.2108532750231062 1 
2 4.324973663908415 18.349837582821063 0.2713312192627929 0.6984775644674963 0.04108099145595323 1 
3 7.1527271268439545 5.120742801556274 0.2724465665459132 0.5020213692703825 0.9999959140495778 1 
4 10.301402754781313 21.974275359390997 0.2640622379927853 0.48821960491459776 1.3879697296786953E-4 1 
5 1.0250693782292983 24.283693008379206 0.32693666844948926 0.7128771444345818 0.047580591290141305 1 
6 12.356802604144448 20.085182882189258 0.2585594748790611 0.41967141463819535 0.006494864896249286 1 
7 12.516591583827065 8.317671371238 0.31156051674327767 0.1904686432611576 0.10732922289096747 1 
8 9.694299082840558 19.789425708085474 0.29951917592466937 0.5136646798146463 1.8675835311926514E-4 1 
9 2.903721595645065 15.097772750202122 0.29619743975371066 0.7901441082131245 0.09279440515973914 1 
10 16.69378755771262 19.04197430491166 0.32594829460975594 0.28227357424850824 0.04989423073073129 1 
10
Time=201 Lattice="20.0 0.00000000 0.00000000 0.00000000 25.0 0.00000000 0.00000000 0.00000000 0.000000000000000001" Properties=id:I:1:pos:R:2:radius:R:1:color:R:3
1 4.420633432773786 9.024804437652364 0.32302421052830754 0.9079144166918836 0.21085327486737732 1 
2 4.336305952812393 18.32363511098506 0.2713312192627929 0.6984775643137691 0.04108099138946786 1 
3 7.1749682680984534 6.3259347589063 0.2724465665459132 0.522156647803434 0.9995088417216602 1 
4 10.300730140511082 21.945735249399984 0.2640622379927853 0.4882196046799238 1.3879697849850103E-4 1 
5 1.0372238265632825 24.257861638151827 0.32693666844948926 0.7128771443560262 0.047580591253178484 1 
6 12.352216157613075 20.057005678456623 0.2585594748790611 0.41967141465040636 0.006494864894261654 1 
7 12.498918559814186 8.295251413067557 0.31156051674327767 0.19046864319201573 0.10732922294547009 1 
8 9.695079282353083 19.76088833601712 0.29951917592466937 0.5136646796552946 1.8675834876263897E-4 1 
9 2.9202876839516927 15.074522911055722 0.29619743975371066 0.7901441081488743 0.0927944051139592 1 
10 16.681356234436112 19.016275034421394 0.32594829460975594 0.2822735736668647 0.049894231012085566 1 
10
Time=401 Lattice="20.0 0.00000000 0.00000000 0.00000000 25.0 0.00000000 0.00000000 0.00000000 0.000000000000000001" Properties=id:I:1:pos:R:2:radius:R:1:color:R:3
1 4.479308167757779 8.983213342130462 0.32302421052830754 0.907914416682887 0.21085327485468547 1 
2 4.364855123937392 18.257623834827264 0.2713312192627929 0.6984775643203288 0.04108099139230492 1 
3 7.237368961606578 7.164319262987156 0.2724465665459132 0.5563639211751318 0.9968129511091308 1 
4 10.299035639068487 21.87383481596151 0.2640622379927853 0.4882196046824743 1.3879697843838246E-4 1 
5 1.0678442447650034 24.192785269620405 0.32693666844948926 0.7128771443579778 0.04758059125409675 1 
6 12.340661629840147 19.986019506284553 0.2585594748790611 0.4196714146604362 0.006494864892629071 1 
7 12.45439532261801 8.238769335363898 0.31156051674327767 0.19046864319915002 0.10732922293984631 1 
8 9.697044820788905 19.68899480016202 0.29951917592466937 0.5136646796576481 1.867583488269764E-4 1 
9 2.962022243840488 15.015950133565413 0.29619743975371066 0.7901441081527827 0.09279440511674408 1 
10 16.65003829165132 18.95153146167803 0.32594829460975594 0.28227357367017364 0.04989423101048496 1 
10
Time=601 Lattice="20.0 0.00000000 0.00000000 0.00000000 25.0 0.00000000 0.00000000 0.00000000 0.000000000000000001" Properties=id:I:1:pos:R:2:radius:R:1:color:R:3
1 4.561692293745192 8.924816042945176 0.32302421052830754 0.9079144166838521 0.210853274856047 1 
2 4.404940494778049 18.164938605092516 0.2713312192627929 0.6984775643178438 0.04108099139123017 1 
3 7.321270063391848 7.694410917768458 0.2724465665459132 0.6072276758551327 0.9883668964320848 1 
4 10.296656420478392 21.772880727829524 0.2640622379927853 0.4882196046894603 1.3879697827373638E-4 1 
5 1.1108378158759882 24.10141272664353 0.32693666844948926 0.7128771443606047 0.04758059125533276 1 
6 12.324438127989533 19.88634911572875 0.2585594748790611 0.41967141467557756 0.006494864890164487 1 
7 12.391881056750995 8.159463879498894 0.31156051674327767 0.19046864320204926 0.10732922293756092 1 
8 9.699804597481586 19.588050396786677 0.29951917592466937 0.5136646796539425 1.8675834872566854E-4 1 
9 3.02062097872815 14.933709164236653 0.29619743975371066 0.7901441081508853 0.09279440511539216 1 
10 16.606065338985854 18.86062619120157 0.32594829460975594 0.28227357369195455 0.049894230999948996 1 
10
Time=801 Lattice="20.0 0.00000000 0.00000000 0.00000000 25.0 0.00000000 0.00000000 0.00000000 0.000000000000000001" Properties=id:I:1:pos:R:2:radius:R:1:color:R:3
1 4.659962935435711 8.855157719874379 0.32302421052830754 0.9079144166850467 0.2108532748577323 1 
2 4.452755714854575 18.05438044971794 0.2713312192627929 0.6984775643162239 0.041080991390529564 1 
3 7.415384054830361 8.012901369976202 0.2724465665459132 0.688866953857942 0.962957097083976 1 
4 10.29381840605912 21.652459191492184 0.2640622379927853 0.48821960469504044 1.3879697814223046E-4 1 
5 1.1621220380606623 23.992420389545106 0.32693666844948926 0.7128771443638261 0.04758059125684855 1 
6 12.305086172522381 19.767458818350608 0.2585594748790611 0.41967141467168156 0.006494864890798646 1 
7 12.31731187309037 8.064865582266238 0.31156051674327767 0.19046864320251994 0.10732922293718994 1 
8 9.703096554799256 19.467640412741883 0.29951917592466937 0.5136646796418427 1.867583483948776E-4 1 
9 3.090519581288176 14.835609284772222 0.29619743975371066 0.7901441081532752 0.09279440511709497 1 
10 16.553612876531606 18.752191232943122 0.32594829460975594 0.28227357369687534 0.049894230997568734 1 
10
Time=1001 Lattice="20.0 0.00000000 0.00000000 0.00000000 25.0 0.00000000 0.00000000 0.00000000 0.000000000000000001" Properties=id:I:1:pos:R:2:radius:R:1:color:R:3
1 4.768878362609643 8.777953929577313 0.32302421052830754 0.9079144166833795 0.2108532748553802 1 
2 4.505750332885626 17.931846511679062 0.2713312192627929 0.698477564318985 0.04108099139172372 1 
3 7.513556563654834 8.18690305602094 0.2724465665459132 0.8200902337121634 0.8841122782235589 1 
4 10.29067297475431 21.518993460081443 0.2640622379927853 0.4882196046902292 1.3879697825563975E-4 1 
5 1.2189614243764118 23.871621880962746 0.32693666844948926 0.7128771443594547 0.04758059125479169 1 
6 12.283637991661408 19.635690191393174 0.2585594748790611 0.4196714146795506 0.006494864889517782 1 
7 12.23466527230796 7.9600202919966705 0.31156051674327767 0.19046864320156698 0.10732922293794112 1 
8 9.70674510060254 19.33418748494827 0.29951917592466937 0.5136646796326263 1.8675834814291248E-4 1 
9 3.1679896784171078 14.726883116979051 0.29619743975371066 0.7901441081518334 0.09279440511606774 1 
10 16.495478704861625 18.63201047909297 0.32594829460975594 0.28227357371257566 0.04989423098997409 1 
10
Time=1201 Lattice="20.0 0.00000000 0.00000000 0.00000000 25.0 0.00000000 0.00000000 0.00000000 0.000000000000000001" Properties=id:I:1:pos:R:2:radius:R:1:color:R:3
1 4.88492634547369 8.695694286788466 0.32302421052830754 0.9079144166837949 0.21085327485596644 1 
2 4.562215414873773 17.80128818113903 0.2713312192627929 0.6984775643177897 0.041080991391206745 1 
3 7.612592214738892 8.262500113567084 0.2724465665459132 0.9666879373706834 0.6794501856022923 1 
4 10.287321558269143 21.37678744472584 0.2640622379927853 0.48821960469329106 1.3879697818347525E-4 1 
5 1.2795230573824001 23.74291262812294 0.32693666844948926 0.7128771443586235 0.04758059125440062 1 
6 12.260785231596397 19.49529241892091 0.2585594748790611 0.4196714146945881 0.006494864887070129 1 
7 12.146606385148417 7.848308987507418 0.31156051674327767 0.19046864320186935 0.10732922293770275 1 
8 9.710632579093323 19.19199511163985 0.29951917592466937 0.5136646796190799 1.8675834777254208E-4 1 
9 3.25053306770027 14.611036787543336 0.29619743975371066 0.7901441081522803 0.09279440511638609 1 
10 16.433537494760998 18.503959435954677 0.32594829460975594 0.2822735737040133 0.049894230994115885 1 
10
Time=1401 Lattice="20.0 0.00000000 0.00000000 0.00000000 25.0 0.00000000 0.00000000 0.00000000 0.000000000000000001" Properties=id:I:1:pos:R:2:radius:R:1:color:R:3
1 5.005753508787674 8.61004696188113 0.32302421052830754 0.9079144166863574 0.21085327485958144 1 
2 4.621005886836616 17.66535309345273 0.2713312192627929 0.6984775643173456 0.041080991391014676 1 
3 7.710945108368334 8.271165104873559 0.2724465665459132 0.9927024425701388 0.41488652817903 1 
4 10.283832121083735 21.22872498802265 0.2640622379927853 0.4882196047004073 1.3879697801577606E-4 1 
5 1.3425787877899327 23.608902768330562 0.32693666844948926 0.712877144364856 0.04758059125733316 1 
6 12.236991330970145 19.349112673570506 0.2585594748790611 0.41967141470880853 0.00649486488475548 1 
7 12.0549209867652 7.731997099109765 0.31156051674327767 0.19046864319521756 0.10732922294294617 1 
8 9.714680154814802 19.043946858743436 0.29951917592466937 0.5136646795962292 1.8675834714781958E-4 1 
9 3.3364758245781276 14.490419582309018 0.29619743975371066 0.7901441081512102 0.09279440511562365 1 
10 16.369045372412135 18.370634892775573 0.32594829460975594 0.28227357369554973 0.04989423099820994 1 
10
Time=1601 Lattice="20.0 0.00000000 0.00000000 0.00000000 25.0 0.00000000 0.00000000 0.00000000 0.000000000000000001" Properties=id:I:1:pos:R:2:radius:R:1:color:R:3
1 5.129782969673712 8.522129715101801 0.32302421052830754 0.9079144166828438 0.21085327485462457 1 
2 4.681354490105538 17.525815300962172 0.2713312192627929 0.6984775643102981 0.041080991387966725 1 
3 7.807968170500081 8.234329780275724 0.2724465665459132 0.9356986073978388 0.2547109388668466 1 
4 10.280250202905256 21.076738413351713 0.2640622379927853 0.48821960469749454 1.3879697808444336E-4 1 
5 1.4073056921862226 23.471341228296154 0.32693666844948926 0.7128771443636928 0.04758059125678582 1 
6 12.212566817596379 19.19905870796005 0.2585594748790611 0.41967141473948283 0.00649486487976253 1 
7 11.960805638684862 7.612602582041132 0.31156051674327767 0.19046864319164958 0.10732922294575875 1 
8 9.718835003940141 18.891974864264483 0.29951917592466937 0.51366467956712 1.8675834635201172E-4 1 
9 3.424696333198812 14.366605644047302 0.29619743975371066 0.7901441081549426 0.09279440511828307 1 
10 16.302844007194484 18.233776832385537 0.32594829460975594 0.2822735736885914 0.049894231001575806 1 
10
Time=1801 Lattice="20.0 0.00000000 0.00000000 0.00000000 25.0 0.00000000 0.00000000 0.00000000 0.000000000000000001" Properties=id:I:1:pos:R:2:radius:R:1:color:R:3
1 5.255958135213534 8.432691503509963 0.32302421052830754 0.9079144166818804 0.21085327485326555 1 
2 4.74274712177007 17.383863510303392 0.2713312192627929 0.6984775643113084 0.0410809913884036 1 
3 7.903487866629195 8.166565868475798 0.2724465665459132 0.8829409539210076 0.17850936901665587 1 
4 10.276606317687264 20.922122477117462 0.2640622379927853 0.4882196046967832 1.3879697810120772E-4 1 
5 1.473152369410595 23.331399879183447 0.32693666844948926 0.7128771443657034 0.04758059125773184 1 
6 12.187719761140338 19.046408814814992 0.2585594748790611 0.41967141477885195 0.006494864873354378 1 
7 11.865062098889332 7.491142544656583 0.31156051674327767 0.1904686431929738 0.10732922294471486 1 
8 9.72306173177687 18.737373760393716 0.29951917592466937 0.513664679520238 1.8675834507025924E-4 1 
9 3.5144430530506123 14.240649729661692 0.29619743975371066 0.790144108152119 0.09279440511627113 1 
10 16.23549736103338 18.094551133085446 0.32594829460975594 0.2822735736949061 0.049894230998521305 1 
10
Time=2001 Lattice="20.0 0.00000000 0.00000000 0.00000000 25.0 0.00000000 0.00000000 0.00000000 0.000000000000000001" Properties=id:I:1:pos:R:2:radius:R:1:color:R:3
1 5.383571033617774 8.342234166991739 0.32302421052830754 0.9079144166782364 0.21085327484812466 1 
2 4.804839306345443 17.240294216280333 0.2713312192627929 0.6984775643146819 0.04108099138986265 1 
3 7.997565464831171 8.077773213905173 0.2724465665459132 0.8471547034304963 0.14016168646726318 1 
4 10.272920911353289 20.76574473293701 0.2640622379927853 0.4882196046914289 1.3879697822738457E-4 1 
5 1.5397493522253283 23.189863935157693 0.32693666844948926 0.7128771443656323 0.047580591257698424 1 
6 12.162589579020889 18.892019516236765 0.2585594748790611 0.41967141484788795 0.0064948648621172556 1 
7 11.768227586607429 7.368298502050892 0.31156051674327767 0.1904686431933557 0.10732922294441383 1 
8 9.72733662205203 18.5810110175237 0.29951917592466937 0.5136646794603041 1.8675834343168107E-4 1 
9 3.605212413200295 14.113258580716742 0.29619743975371066 0.7901441081491408 0.09279440511414916 1 
10 16.167383317532796 17.95373899351379 0.32594829460975594 0.2822735736942372 0.049894230998844824 1 
10
Time=2201 Lattice="20.0 0.00000000 0.00000000 0.00000000 25.0 0.00000000 0.00000000 0.00000000 0.000000000000000001" Properties=id:I:1:pos:R:2:radius:R:1:color:R:3
1 5.512147287244847 8.251093964172059 0.32302421052830754 0.9079144166751395 0.2108532748437557 1 
2 4.8674002274779085 17.09564111151653 0.2713312192627929 0.6984775643131147 0.04108099138918486 1 
3 8.090365223314684 7.974675717092152 0.2724465665459132 0.8237228622537038 0.11894421871034483 1 
4 10.269207683728526 20.608186486511247 0.2640622379927853 0.4882196046852946 1.387969783719356E-4 1 
5 1.606849078511575 23.047259530237966 0.32693666844948926 0.7128771443630082 0.04758059125646369 1 
6 12.137269688105716 18.73646472624503 0.2585594748790611 0.4196714149312968 0.006494864848540727 1 
7 11.670662066451623 7.244527104512364 0.31156051674327767 0.1904686431980368 0.10732922294072389 1 
8 9.731643783635189 18.423467885581502 0.29951917592466937 0.5136646793765471 1.8675834114179057E-4 1 
9 3.6966669951319298 13.984905750537525 0.29619743975371066 0.7901441081454617 0.09279440511152764 1 
10 16.098755078205752 17.8118638570795 0.32594829460975594 0.28227357369687056 0.04989423099757101 1 
10
Time=2401 Lattice="20.0 0.00000000 0.00000000 0.00000000 25.0 0.00000000 0.00000000 0.00000000 0.000000000000000001" Properties=id:I:1:pos:R:2:radius:R:1:color:R:3
1 5.641369038589925 8.15949620568508 0.32302421052830754 0.9079144166633 0.21085327482705296 1 
2 4.9302752262974865 16.950261797618452 0.2713312192627929 0.6984775643203477 0.04108099139231308 1 
3 8.1820837809964 7.861840418020352 0.2724465665459132 0.8082099512216229 0.10629119140160848 1 
4 10.26547581440323 20.44983724266983 0.2640622379927853 0.4882196046862406 1.3879697834962013E-4 1 
5 1.6742856688721988 22.903939201368146 0.32693666844948926 0.712877144359282 0.04758059125471037 1 
6 12.111822682523455 18.580128996852267 0.2585594748790611 0.41967141505112937 0.006494864829035385 1 
7 11.572606733291325 7.120134331305281 0.31156051674327767 0.19046864320082757 0.10732922293852398 1 
8 9.735972568640914 18.265133832018677 0.29951917592466937 0.5136646792466447 1.8675833759035365E-4 1 
9 3.788580711024166 13.855908544294568 0.29619743975371066 0.7901441081449372 0.09279440511115394 1 
10 16.029782301135164 17.669276457880766 0.32594829460975594 0.2822735737001555 0.049894230995982 1 
10
Time=2601 Lattice="20.0 0.00000000 0.00000000 0.00000000 25.0 0.00000000 0.00000000 0.00000000 0.000000000000000001" Properties=id:I:1:pos:R:2:radius:R:1:color:R:3
1 5.771023306714821 8.067591861285006 0.32302421052830754 0.9079144166499826 0.21085327480826566 1 
2 4.9933606733785725 16.804395886117856 0.2713312192627929 0.6984775643178991 0.04108099139125404 1 
3 8.272914331850433 7.742370277894561 0.2724465665459132 0.7977658831380832 0.09833412039482697 1 
4 10.261731454177786 20.29095798974848 0.2640622379927853 0.48821960468418335 1.3879697839813687E-4 1 
5 1.7419479755496958 22.760139166502494 0.32693666844948926 0.712877144362583 0.04758059125626363 1 
6 12.086290503580862 18.423269997752826 0.2585594748790611 0.4196714152333688 0.006494864799372002 1 
7 11.474223200136652 6.995325204328403 0.31156051674327767 0.19046864320314838 0.1073292229366945 1 
8 9.74031584243051 18.106269820126638 0.29951917592466937 0.5136646790568071 1.8675833240028306E-4 1 
9 3.880802070368135 13.726479572832787 0.29619743975371066 0.7901441081474712 0.09279440511295955 1 
10 15.96057866599291 17.526211805868133 0.32594829460975594 0.28227357369484773 0.049894230998549505 1 
10
Time=2801 Lattice="20.0 0.00000000 0.00000000 0.00000000 25.0 0.00000000 0.00000000 0.00000000 0.000000000000000001" Properties=id:I:1:pos:R:2:radius:R:1:color:R:3
1 5.900967383397173 7.975482088501908 0.32302421052830754 0.9079144166348114 0.21085327478686278 1 
2 5.056587131656012 16.65820392910509 0.2713312192627929 0.698477564314822 0.04108099138992327 1 
3 8.36303026058512 7.618374563697317 0.2724465665459132 0.790630603951943 0.093141483994093 1 
4 10.257978724403632 20.131723603404033 0.2640622379927853 0.4882196046791358 1.3879697851709727E-4 1 
5 1.8097615238096643 22.616017703860237 0.32693666844948926 0.7128771443597013 0.04758059125490771 1 
6 12.060701254128741 18.266060380947934 0.2585594748790611 0.41967141548356024 0.006494864758647911 1 
7 11.375619756046007 6.870237098836194 0.31156051674327767 0.19046864320273948 0.10732922293701685 1 
8 9.744668824414546 17.94705070878555 0.29951917592466937 0.5136646787919781 1.867583251599636E-4 1 
9 3.973229566703421 13.59676129639014 0.29619743975371066 0.7901441081504005 0.09279440511504666 1 
10 15.8912203440255 17.382827369835795 0.32594829460975594 0.28227357369051814 0.04989423100064383 1 
10
Time=3001 Lattice="20.0 0.00000000 0.00000000 0.00000000 25.0 0.00000000 0.00000000 0.00000000 0.000000000000000001" Properties=id:I:1:pos:R:2:radius:R:1:color:R:3
1 6.03110564675585 7.8832346681014736 0.32302421052830754 0.9079144166070541 0.21085327474770393 1 
2 5.119908074711947 16.511793504772086 0.2713312192627929 0.6984775643092739 0.041080991387523746 1 
3 8.452579363978582 7.491288017365264 0.2724465665459132 0.7856989137316901 0.08966339342859952 1 
4 10.254220386599778 19.972251259350323 0.2640622379927853 0.4882196046761481 1.387969785874854E-4 1 
5 1.8776764117358131 22.47168086801647 0.32693666844948926 0.7128771443636337 0.047580591256758065 1 
6 12.03507376454517 18.108615832196634 0.2585594748790611 0.41967141585269313 0.006494864698563585 1 
7 11.276868960277044 6.744962063339473 0.31156051674327767 0.19046864320267726 0.10732922293706593 1 
8 9.749028311336778 17.78759366246196 0.29951917592466937 0.5136646784080031 1.867583146622498E-4 1 
9 4.065795185462572 13.466849170678138 0.29619743975371066 0.7901441081493321 0.09279440511428544 1 
10 15.821758373902814 17.239228662005978 0.32594829460975594 0.2822735736961661 0.04989423099791179 1 
10
Time=3201 Lattice="20.0 0.00000000 0.00000000 0.00000000 25.0 0.00000000 0.00000000 0.00000000 0.000000000000000001" Properties=id:I:1:pos:R:2:radius:R:1:color:R:3
1 6.161374025185321 7.7908950166979025 0.32302421052830754 0.9079144165671601 0.2108532746914235 1 
2 5.183292327446309 16.36523669605913 0.2713312192627929 0.6984775643087819 0.04108099138731103 1 
3 8.541683554705461 7.362087358700139 0.2724465665459132 0.7822589913232358 0.08728961508439176 1 
4 10.250458291126481 19.8126194713623 0.2640622379927853 0.488219604667614 1.387969787886023E-4 1 
5 1.9456592024689217 22.327199721014107 0.32693666844948926 0.712877144362031 0.04758059125600389 1 
6 12.009420652181076 17.951013866925283 0.2585594748790611 0.4196714163890609 0.0064948646112582 1 
7 11.178019431279198 6.619561775091854 0.31156051674327767 0.1904686432052879 0.10732922293500802 1 
8 9.7533921568237 17.627977187393206 0.29951917592466937 0.5136646778621436 1.867582997386874E-4 1 
9 4.158453353374222 13.336807155949408 0.29619743975371066 0.7901441081468046 0.09279440511248455 1 
10 15.752226954167236 17.095486381010346 0.32594829460975594 0.2822735736920647 0.04989423099989576 1 
10
Time=3401 Lattice="20.0 0.00000000 0.00000000 0.00000000 25.0 0.00000000 0.00000000 0.00000000 0.000000000000000001" Properties=id:I:1:pos:R:2:radius:R:1:color:R:3
1 6.291729587391731 7.698493565769539 0.32302421052830754 0.9079144165097498 0.2108532746104318 1 
2 5.246719000934125 16.21858180225385 0.2713312192627929 0.6984775643110167 0.04108099138827748 1 
3 8.630441158195259 7.2314381437233575 0.2724465665459132 0.7798417388287369 0.08564676758916312 1 
4 10.246693677818111 19.652880847723935 0.2640622379927853 0.48821960465313835 1.3879697912977385E-4 1 
5 2.01368749158744 22.182621878085065 0.32693666844948926 0.7128771443631816 0.04758059125654529 1 
6 11.983750371345602 17.793306424477592 0.2585594748790611 0.419671417145559 0.006494864488121865 1 
7 11.07910374592432 6.494077561036094 0.31156051674327767 0.19046864321954476 0.10732922292376973 1 
8 9.75775892266203 17.46825388680436 0.29951917592466937 0.5136646770633502 1.867582778999899E-4 1 
9 4.2511735339953844 13.206678108873653 0.29619743975371066 0.7901441081479719 0.09279440511331627 1 
10 15.682648999604002 16.951647898585442 0.32594829460975594 0.2822735736893764 0.04989423100119611 1 
10
Time=3601 Lattice="20.0 0.00000000 0.00000000 0.00000000 25.0 0.00000000 0.00000000 0.00000000 0.000000000000000001" Properties=id:I:1:pos:R:2:radius:R:1:color:R:3
1 6.422143567175043 7.6060507059841855 0.32302421052830754 0.9079144164306023 0.21085327449877433 1 
2 5.310174098515752 16.071861186376882 0.2713312192627929 0.6984775643116063 0.04108099138853255 1 
3 8.718930209154818 7.099794400230567 0.2724465665459132 0.7781323069448531 0.08449738889685177 1 
4 10.242927377427927 19.49307063870528 0.2640622379927853 0.4882196046381452 1.3879697948310232E-4 1 
5 2.081746266972095 22.03797924389522 0.32693666844948926 0.7128771443637762 0.04758059125682507 1 
6 11.958068586914944 17.635528306905936 0.2585594748790611 0.4196714182486618 0.00649486430856816 1 
7 10.980143732418027 6.368537112350669 0.31156051674327767 0.19046864336381752 0.10732922281004359 1 
8 9.762127645119993 17.308459007564803 0.29951917592466937 0.5136646759096605 1.8675824635866478E-4 1 
9 4.343935266332624 13.076490745634413 0.29619743975371066 0.7901441081483398 0.09279440511357845 1 
10 15.613039864305932 16.80774495623874 0.32594829460975594 0.28227357368719286 0.049894231002252376 1 
10
Time=3801 Lattice="20.0 0.00000000 0.00000000 0.00000000 25.0 0.00000000 0.00000000 0.00000000 0.000000000000000001" Properties=id:I:1:pos:R:2:radius:R:1:color:R:3
1 6.5525966896703505 7.513580100150707 0.32302421052830754 0.9079144163190063 0.21085327434134005 1 
2 5.373648241707095 15.925096533318442 0.2713312192627929 0.6984775643096541 0.041080991387688226 1 
3 8.807211907133688 6.967466248820765 0.2724465665459132 0.7769164081826923 0.08368605250460737 1 
4 10.239159946604214 19.333212463805705 0.2640622379927853 0.4882196046134132 1.387969800659694E-4 1 
5 2.14982546972909 21.893293196216955 0.32693666844948926 0.7128771443636456 0.047580591256763616 1 
6 11.932379094723863 17.477702833389788 0.2585594748790611 0.4196714198431547 0.006494864049030102 1 
7 10.881154016969944 6.242958983490846 0.31156051674327767 0.19046864472430103 0.10732922173761256 1 
8 9.766497678376485 17.148616166880466 0.29951917592466937 0.5136646742412585 1.8675820074526284E-4 1 
9 4.436724840463238 12.946264307556113 0.29619743975371066 0.7901441081458318 0.09279440511179138 1 
10 15.543409836306711 16.663798822414424 0.32594829460975594 0.28227357369067446 0.04989423100056822 1 
10
Time=4001 Lattice="20.0 0.00000000 0.00000000 0.00000000 25.0 0.00000000 0.00000000 0.00000000 0.000000000000000001" Properties=id:I:1:pos:R:2:radius:R:1:color:R:3
1 6.683076039686991 7.421090903069087 0.32302421052830754 0.907914416165952 0.21085327412541832 1 
2 5.437135146439641 15.778302373076098 0.2713312192627929 0.6984775643099841 0.041080991387830945 1 
3 8.895333820252114 6.834665818917454 0.2724465665459132 0.7760466539990764 0.08310883336785096 1 
4 10.235391758329031 19.17332214930442 0.2640622379927853 0.48821960459330027 1.3879698053997913E-4 1 
5 2.217918359879947 21.74857805926051 0.32693666844948926 0.7128771443661267 0.04758059125793107 1 
6 11.906684438282099 17.319845629004075 0.2585594748790611 0.4196714221347668 0.006494863676020923 1 
7 10.782144401614117 6.1173556062731524 0.31156051674327767 0.19046865751865022 0.10732921165218651 1 
8 9.770868589590947 16.988741189484234 0.29951917592466937 0.5136646718330734 1.8675813490653947E-4 1 
9 4.529533070032766 12.816011687318927 0.29619743975371066 0.7901441081457877 0.09279440511176001 1 
10 15.4737658091195 16.51982374807543 0.32594829460975594 0.28227357369153194 0.049894231000153444 1 
10
Time=4201 Lattice="20.0 0.00000000 0.00000000 0.00000000 25.0 0.00000000 0.00000000 0.00000000 0.000000000000000001" Properties=id:I:1:pos:R:2:radius:R:1:color:R:3
1 6.8135729633310556 7.328589248946089 0.32302421052830754 0.9079144159590531 0.21085327383353508 1 
2 5.500630602063415 15.631488441496463 0.2713312192627929 0.6984775643051205 0.04108099138572746 1 
3 8.983332657301725 6.701538450264328 0.2724465665459132 0.7754208083194305 0.08269510146096831 1 
4 10.23162306252015 19.013410299627946 0.2640622379927853 0.4882196045744141 1.3879698098512305E-4 1 
5 2.286020421291007 21.603843430987457 0.32693666844948926 0.7128771443655549 0.04758059125766201 1 
6 11.880986322023736 17.16196716337653 0.2585594748790611 0.419671425433394 0.006494863139098417 1 
7 10.68312146980019 5.991735304438194 0.31156051674327767 0.19046877549497943 0.10732911865479183 1 
8 9.775240088586374 16.828844678735575 0.29951917592466937 0.5136646683644799 1.867580400767288E-4 1 
9 4.622353799709605 12.685741523683255 0.29619743975371066 0.7901441081456932 0.09279440511169262 1 
10 15.404112401753608 16.37582928209644 0.32594829460975594 0.2822735736920485 0.04989423099990359 1 
10
Time=4401 Lattice="20.0 0.00000000 0.00000000 0.00000000 25.0 0.00000000 0.00000000 0.00000000 0.000000000000000001" Properties=id:I:1:pos:R:2:radius:R:1:color:R:3
1 6.944081661982783 7.236079248047388 0.32302421052830754 0.9079144156904285 0.21085327345457244 1 
2 5.564131787226172 15.484661262100078 0.2713312192627929 0.69847756430785 0.04108099138690796 1 
3 9.071236476069455 6.568183956533918 0.2724465665459132 0.7749671033893732 0.08239601049120981 1 
4 10.227854026635443 18.853484020289727 0.2640622379927853 0.4882196045444846 1.3879698169044774E-4 1 
5 2.3541286279197355 21.459095742522546 0.32693666844948926 0.7128771443606793 0.0475805912553679 1 
6 11.855285888231684 17.00407445174058 0.2585594748790611 0.419671430195579 0.0064948623639504155 1 
7 10.584089769749037 5.866103594848547 0.31156051674327767 0.19046983437316312 0.10732828397372068 1 
8 9.77961198071078 16.668933739392713 0.29951917592466937 0.5136646633640836 1.8675790336819542E-4 1 
9 4.715182905103104 12.555459605066341 0.29619743975371066 0.79014410814615 0.09279440511201809 1 
10 15.334452709183573 16.231821822716057 0.32594829460975594 0.2822735736888915 0.0498942310014307 1 
10
Time=4601 Lattice="20.0 0.00000000 0.00000000 0.00000000 25.0 0.00000000 0.00000000 0.00000000 0.000000000000000001" Properties=id:I:1:pos:R:2:radius:R:1:color:R:3
1 7.0745982501780995 7.143563654504718 0.32302421052830754 0.907914415349917 0.21085327297419493 1 
2 5.627636811475749 15.337825205983966 0.2713312192627929 0.6984775643085058 0.04108099138719157 1 
3 9.159065589875125 6.434671561024683 0.2724465665459132 0.7746317496014801 0.08217539312430394 1 
4 10.22408476287743 18.69354807235505 0.2640622379927853 0.48821960451455726 1.3879698239577243E-4 1 
5 2.4222409521615464 21.314339303054158 0.32693666844948926 0.7128771443623274 0.04758059125614339 1 
6 11.829583902613225 16.84617219472026 0.2585594748790611 0.4196714370570326 0.006494861247101358 1 
7 10.485053505499483 5.740463601307555 0.31156051674327767 0.1904790014261838 0.10732105806159192 1 
8 9.783984135219008 16.509013131949033 0.29951917592466937 0.5136646561392726 1.8675770584525297E-4 1 
9 4.80801762265985 12.425169810004455 0.29619743975371066 0.790144108147222 0.09279440511278197 1 
10 15.264788805201913 16.08780565708889 0.32594829460975594 0.28227357368985895 0.04989423100096274 1 
10
Time=4801 Lattice="20.0 0.00000000 0.00000000 0.00000000 25.0 0.00000000 0.00000000 0.00000000 0.000000000000000001" Properties=id:I:1:pos:R:2:radius:R:1:color:R:3
1 7.2051201243449245 7.051044313788812 0.32302421052830754 0.9079144149335676 0.2108532723868291 1 
2 5.691144408111387 15.190983202008422 0.2713312192627929 0.6984775643100881 0.04108099138787591 1 
3 9.2468262938028 6.3010542911545375 0.2724465665459132 0.7743522259803266 0.08199179900432602 1 
4 10.220315346429237 18.533605645982625 0.2640622379927853 0.4882196044760369 1.387969833036018E-4 1 
5 2.4903560354166814 21.169576999964498 0.32693666844948926 0.7128771443583728 0.0475805912542826 1 
6 11.803880878687677 16.688263542059772 0.2585594748790611 0.41967144693030434 0.006494859640014394 1 
7 10.38602472185637 5.614812195495078 0.31156051674327767 0.19055445355197814 0.10726159624568782 1 
8 9.788356464048379 16.34908604610032 0.29951917592466937 0.5136646457237933 1.867574210911438E-4 1 
9 4.900856100655485 12.294874737317913 0.29619743975371066 0.7901441081499945 0.0927944051147574 1 
10 15.195122079357798 15.943783657823175 0.32594829460975594 0.2822735736963524 0.04989423099782164 1 
10
Time=5001 Lattice="20.0 0.00000000 0.00000000 0.00000000 25.0 0.00000000 0.00000000 0.00000000 0.000000000000000001" Properties=id:I:1:pos:R:2:radius:R:1:color:R:3
1 7.335645539816555 6.958522462539583 0.32302421052830754 0.9079144144408478 0.21085327169172335 1 
2 5.754653728379305 15.044137212659251 0.2713312192627929 0.6984775643144656 0.04108099138976912 1 
3 9.33445562144755 6.167414677475841 0.2724465665459132 0.7739331420975284 0.08171704115446532 1 
4 10.216545827664818 18.373658878740486 0.2640622379927853 0.4882196044340014 1.387969842942538E-4 1 