5
Time=1 Lattice="20.0 0.00000000 0.00000000 0.00000000 25.0 0.00000000 0.00000000 0.00000000 0.000000000000000001" Properties=id:I:1:pos:R:2:radius:R:1:color:R:3
1 9.565135178897695 20.700000320679656 0.27967747752536765 0.516493541423224 2.7211095305035293E-4 1 
2 18.78458256972596 6.830347530611049 0.25080276877525715 0.010321752429636344 0.39892965886859955 1 
3 6.652939033526095 21.056147917427957 0.31999955572532024 0.6044667286642239 0.01103507017149441 1 
4 14.167559163152264 6.312330816300623 0.3182668326200295 0.022248747518908762 0.3525085061681568 1 
5 17.738903140075315 13.994237829172567 0.275501112790517 0.17188338593757035 0.12272094203864614 1 
5
Time=201 Lattice="20.0 0.00000000 0.00000000 0.00000000 25.0 0.00000000 0.00000000 0.00000000 0.000000000000000001" Properties=id:I:1:pos:R:2:radius:R:1:color:R:3
1 9.572198051868654 20.48600658170724 0.27967747752536765 0.516493541433971 2.721109534050692E-4 1 
2 18.574892293500444 6.787067136081383 0.25080276877525715 0.010321752427241537 0.39892965888020215 1 
3 6.697673830912633 20.846763098500944 0.31999955572532024 0.604466728663506 0.011035070171341033 1 
4 13.962976271025159 6.249171931390198 0.3182668326200295 0.022248747517546463 0.3525085061725696 1 
5 17.59839687135617 13.832679192931627 0.275501112790517 0.17188338592440966 0.12272094205009193 1 
5
Time=401 Lattice="20.0 0.00000000 0.00000000 0.00000000 25.0 0.00000000 0.00000000 0.00000000 0.000000000000000001" Properties=id:I:1:pos:R:2:radius:R:1:color:R:3
1 9.589991383012105 19.94689714623054 0.27967747752536765 0.5164935414339359 2.7211095340390345E-4 1 
2 18.046624471349954 6.678031847600159 0.25080276877525715 0.010321752427046693 0.3989296588811462 1 
3 6.810373162589893 20.31926480779954 0.31999955572532024 0.6044667286640869 0.0110350701714651 1 
4 13.447575362511932 6.090057225732082 0.3182668326200295 0.022248747517430334 0.3525085061729458 1 
5 17.244422705690525 13.425668288786397 0.275501112790517 0.17188338592334074 0.12272094205102158 1 
5
Time=601 Lattice="20.0 0.00000000 0.00000000 0.00000000 25.0 0.00000000 0.00000000 0.00000000 0.000000000000000001" Properties=id:I:1:pos:R:2:radius:R:1:color:R:3
1 9.614974674970915 19.189943413660448 0.27967747752536765 0.5164935414347621 2.7211095343121494E-4 1 
2 17.304893250453645 6.524937386315158 0.25080276877525715 0.01032175242726685 0.39892965888007975 1 
3 6.968612240145231 19.578614071987406 0.31999955572532024 0.6044667286642409 0.011035070171498018 1 
4 12.723910340540117 5.86664716753487 0.3182668326200295 0.022248747517460643 0.35250850617284757 1 
5 16.74741403119486 12.854191696434523 0.275501112790517 0.17188338592361568 0.12272094205078243 1 
5
Time=801 Lattice="20.0 0.00000000 0.00000000 0.00000000 25.0 0.00000000 0.00000000 0.00000000 0.000000000000000001" Properties=id:I:1:pos:R:2:radius:R:1:color:R:3
1 9.644775611780677 18.28702275828281 0.27967747752536765 0.5164935414401401 2.721109536086841E-4 1 
2 16.42013053475336 6.342321005192869 0.25080276877525715 0.010321752427278619 0.3989296588800225 1 
3 7.157365297910295 18.695140196357176 0.31999955572532024 0.6044667286579863 0.011035070170161754 1 
4 11.860697613262706 5.600155904611924 0.3182668326200295 0.02224874751765854 0.35250850617220664 1 
5 16.15456485323992 12.172514604297163 0.275501112790517 0.1718833859236366 0.12272094205076423 1 
5
Time=1001 Lattice="20.0 0.00000000 0.00000000 0.00000000 25.0 0.00000000 0.00000000 0.00000000 0.000000000000000001" Properties=id:I:1:pos:R:2:radius:R:1:color:R:3
1 9.677804619335463 17.28629673071382 0.27967747752536765 0.5164935414890017 2.7211095522139406E-4 1 
2 15.439529335144174 6.139923414043133 0.25080276877525715 0.010321752427288389 0.39892965887997534 1 
3 7.36656429731675 17.715967445421377 0.31999955572532024 0.6044667286124044 0.01103507016042321 1 
4 10.906346252907737 5.305996396933153 0.3182668326200295 0.01993092941029978 0.3602370311450797 1 
5 15.497497591278389 11.416997489444471 0.275501112790517 0.17188338592377966 0.12272094205063977 1 
5
Time=1201 Lattice="20.0 0.00000000 0.00000000 0.00000000 25.0 0.00000000 0.00000000 0.00000000 0.000000000000000001" Properties=id:I:1:pos:R:2:radius:R:1:color:R:3
1 9.712996601258128 16.2200360556065 0.27967747752536765 0.5164935419204006 2.721109694597268E-4 1 
2 14.394711404734341 5.924271391192881 0.25080276877525715 0.010321752427274233 0.39892965888004384 1 
3 7.589463132560087 16.6726715087229 0.31999955572532024 0.6044667282149461 0.011035070075506748 1 
4 10.660296839680369 5.45965027749849 0.3182668326200295 0.01291097216566145 0.6128905618880471 1 
5 14.79740089849943 10.612003748212695 0.275501112790517 0.1718833859246171 0.12272094204991152 1 
5
Time=1401 Lattice="20.0 0.00000000 0.00000000 0.00000000 25.0 0.00000000 0.00000000 0.00000000 0.000000000000000001" Properties=id:I:1:pos:R:2:radius:R:1:color:R:3
1 9.749637891102362 15.109863783362227 0.27967747752536765 0.5164935460594984 2.721111060708381E-4 1 
2 13.306864950222872 5.699738214992689 0.25080276877525715 0.010321752427305597 0.39892965887989185 1 
3 7.821541561455612 15.58640972872677 0.31999955572532024 0.6044667244227832 0.011035069265316055 1 
4 10.204379894752847 5.396464043964421 0.3182668326200295 0.03527311764474267 0.31553069410776535 1 
5 14.068472266164836 9.773858113634006 0.275501112790517 0.17188338592449914 0.1227209420500141 1 
5
Time=1601 Lattice="20.0 0.00000000 0.00000000 0.00000000 25.0 0.00000000 0.00000000 0.00000000 0.000000000000000001" Properties=id:I:1:pos:R:2:radius:R:1:color:R:3
1 9.787250327330739 13.97026846509034 0.27967747752536765 0.5164935876316477 2.7211247816361084E-4 1 
2 12.190187163701383 5.469254207657892 0.25080276877525715 0.01032175242735417 0.3989296588796566 1 
3 8.059770756574949 14.471358625637164 0.31999955572532024 0.6044666866179188 0.011035061188357231 1 
4 9.783525195904012 5.046126597134905 0.3182668326200295 0.2893489374969596 0.0465398254903302 1 
5 13.32022474620167 8.91349899941805 0.275501112790517 0.17188338592485802 0.12272094204970196 1 
4
Time=1801 Lattice="20.0 0.00000000 0.00000000 0.00000000 25.0 0.00000000 0.00000000 0.00000000 0.000000000000000001" Properties=id:I:1:pos:R:2:radius:R:1:color:R:3
1 9.825513844472539 12.81095807181598 0.27967747752536765 0.5164940071949728 2.7212632608514253E-4 1 
2 11.06130372959334 5.237856694755367 0.25080276877525715 0.006241110596441446 0.42124621193260336 1 
3 8.302120919294586 13.337017306152 0.31999955572532024 0.6044663088595932 0.011034980480963186 1 
4 12.559032574406157 8.038255707324002 0.275501112790517 0.1718833859244941 0.12272094205001843 1 
4
Time=2001 Lattice="20.0 0.00000000 0.00000000 0.00000000 25.0 0.00000000 0.00000000 0.00000000 0.000000000000000001" Properties=id:I:1:pos:R:2:radius:R:1:color:R:3
1 9.864217244573735 11.638436173018054 0.27967747752536765 0.516498100407312 2.722614433433024E-4 1 
2 10.696169918874498 5.363759369404442 0.25080276877525715 0.0033549758566034926 0.5578249080726042 1 
3 8.547228710990838 12.18975193917662 0.31999955572532024 0.6044626717372723 0.011034203431864897 1 
4 11.789166817770262 7.15303924784065 0.275501112790517 0.17188338591176883 0.12272094206108553 1 
4
Time=2201 Lattice="20.0 0.00000000 0.00000000 0.00000000 25.0 0.00000000 0.00000000 0.00000000 0.000000000000000001" Properties=id:I:1:pos:R:2:radius:R:1:color:R:3
1 9.903249211787157 10.457045982340945 0.27967747752536765 0.5165350002447445 2.734810249647168E-4 1 
2 10.130102378965677 5.296775837410857 0.25080276877525715 0.02380256473800768 0.3475663992096867 1 
3 8.794150342162562 11.033842755852282 0.31999955572532024 0.6044304740829676 0.011027325832202894 1 
4 11.01348980497951 6.261140852257548 0.275501112790517 0.17188337888015826 0.12272094817642176 1 
3
Time=2401 Lattice="20.0 0.00000000 0.00000000 0.00000000 25.0 0.00000000 0.00000000 0.00000000 0.000000000000000001" Properties=id:I:1:pos:R:2:radius:R:1:color:R:3
1 9.9427795043347 9.269547979413767 0.27967747752536765 0.5168224088580246 2.8307357043283465E-4 1 
2 9.042007973512538 9.87230802181215 0.31999955572532024 0.6041860808329913 0.010975194329918059 1 
3 10.235372391128404 5.365910030676819 0.275501112790517 0.17253540886156804 0.12215487094506616 1 
2
Time=2601 Lattice="20.0 0.00000000 0.00000000 0.00000000 25.0 0.00000000 0.00000000 0.00000000 0.000000000000000001" Properties=id:I:1:pos:R:2:radius:R:1:color:R:3
1 9.984456831107314 8.076524670762598 0.27967747752536765 0.5185100466476873 3.4273929712536066E-4 1 
2 9.288664667917311 8.708442893518361 0.31999955572532024 0.6027994252721607 0.010681823182795036 1 
2
Time=2801 Lattice="20.0 0.00000000 0.00000000 0.00000000 25.0 0.00000000 0.00000000 0.00000000 0.000000000000000001" Properties=id:I:1:pos:R:2:radius:R:1:color:R:3
1 10.034742541554472 6.871570702649227 0.27967747752536765 0.5236772540999417 5.609270008134493E-4 1 
2 9.52717581371638 7.551294072233049 0.31999955572532024 0.5986736307246954 0.009833176765699003 1 
2
Time=3001 Lattice="20.0 0.00000000 0.00000000 0.00000000 25.0 0.00000000 0.00000000 0.00000000 0.000000000000000001" Properties=id:I:1:pos:R:2:radius:R:1:color:R:3
1 10.095228971225984 5.640201246981495 0.27967747752536765 0.5165640472732758 2.7444298102113907E-4 1 
2 9.751697194352337 6.417607188812263 0.31999955572532024 0.5969490667541155 0.00948916581230741 1 
1
Time=3201 Lattice="20.0 0.00000000 0.00000000 0.00000000 25.0 0.00000000 0.00000000 0.00000000 0.000000000000000001" Properties=id:I:1:pos:R:2:radius:R:1:color:R:3
1 9.980989793486929 5.30153384641909 0.31999955572532024 0.6070339468397677 0.011590607969193756 1 
