10
Time=1 Lattice="20.0 0.00000000 0.00000000 0.00000000 25.0 0.00000000 0.00000000 0.00000000 0.000000000000000001" Properties=id:I:1:pos:R:2:radius:R:1:color:R:3
1 11.694618943057277 8.362481709109188 0.34503676398026384 0.2654225746500508 0.058442040592416644 1 
2 0.3410572488906191 22.90284982824435 0.34487026068022447 0.9815854253193745 0.36555492526701794 1 
3 14.373153263277946 9.489163587249944 0.29103133032704187 0.14740790700203416 0.1454879184635398 1 
4 10.580719088396267 22.78280125278731 0.3458488164154663 0.4811071238489419 3.570682670065439E-4 1 
5 12.203947157185958 20.51743640191627 0.3244270998837427 0.42675836851608506 0.0053934256223696075 1 
6 8.863531521001958 9.79841552723971 0.25920189381910563 0.6239795797851909 0.015614756834719967 1 
7 13.048777598890899 21.56329752800841 0.30441418508439083 0.40692026875203624 0.00874022795387891 1 
8 2.352905167611286 18.612508071246978 0.2525178196654951 0.7471112178394301 0.06533225790505953 1 
9 2.08108402702269 24.822168399225998 0.28178442623809763 0.5086644916237272 7.507905196169062E-5 1 
10 14.690838211016636 24.853672069625635 0.2678352838921687 0.4954529567844572 2.067602950223124E-5 1 
10
Time=201 Lattice="20.0 0.00000000 0.00000000 0.00000000 25.0 0.00000000 0.00000000 0.00000000 0.000000000000000001" Properties=id:I:1:pos:R:2:radius:R:1:color:R:3
1 11.594168074835752 8.17339752794282 0.34503676398026384 0.2654225746492039 0.05844204059286656 1 
2 0.5145457057441449 22.715607756258393 0.34487026068022447 0.7910900163645745 0.09347004738534737 1 
3 14.222166092131266 9.33735423759362 0.29103133032704187 0.14740790701376982 0.1454879184518677 1 
4 10.572628771045014 22.568843894280068 0.3458488164154663 0.48110712382791965 3.570682678014081E-4 1 
5 12.17257601954577 20.305585672995193 0.3244270998837427 0.42675763263368616 0.005393534592826099 1 
6 8.916622121740696 9.590991824139676 0.25920189381910563 0.6239795797890633 0.015614756835711063 1 
7 13.008928727624548 21.35298084899268 0.30441418508439083 0.406920949524117 0.00874009896745287 1 
8 2.4587232630332143 18.426374422552815 0.2525178196654951 0.747111217840015 0.06533225790539199 1 
9 2.147489409866067 23.816358260294262 0.28178442623809763 0.5643717856479279 0.004161041050123604 1 
10 14.649466849081062 23.70184087277077 0.2678352838921687 0.4639784948352461 0.001299236850728691 1 
10
Time=401 Lattice="20.0 0.00000000 0.00000000 0.00000000 25.0 0.00000000 0.00000000 0.00000000 0.000000000000000001" Properties=id:I:1:pos:R:2:radius:R:1:color:R:3
1 11.34110454540776 7.69704216046366 0.34503676398026384 0.2654225746512003 0.05844204059180602 1 
2 0.8208053704386635 22.24186874333284 0.34487026068022447 0.7603894892762189 0.07315422706266617 1 
3 13.841787633437008 8.954904483754685 0.29103133032704187 0.1474079070146193 0.14548791845102277 1 
4 10.552247023234182 22.029826111270747 0.3458488164154663 0.48110712382439685 3.5706826793463486E-4 1 
5 12.093541097503474 19.771870034833757 0.3244270998837427 0.42675542550187273 0.005393861434587255 1 
6 9.050372033914766 9.068434126802691 0.25920189381910563 0.623979579789754 0.015614756835887922 1 
7 12.908540851023186 20.823139994166713 0.30441418508439083 0.40692298774752095 0.008739712789490928 1 
8 2.725308322764152 17.957452262719247 0.2525178196654951 0.7471112178416749 0.06533225790633568 1 
9 2.345162879454109 22.740967615786705 0.28178442623809763 0.6125172502713151 0.012824602025736265 1 
10 14.524958408586567 22.504323527618066 0.2678352838921687 0.43437219308895797 0.004325720901268704 1 
10
Time=601 Lattice="20.0 0.00000000 0.00000000 0.00000000 25.0 0.00000000 0.00000000 0.00000000 0.000000000000000001" Properties=id:I:1:pos:R:2:radius:R:1:color:R:3
1 10.98578265611307 7.028200270980698 0.34503676398026384 0.2654225748534622 0.058442040484354474 1 
2 1.2135115679067725 21.5757124136397 0.34487026068022447 0.7493350478408366 0.06660406794916995 1 
3 13.307705172344711 8.417913754897622 0.29103133032704187 0.14740790701546996 0.14548791845017678 1 
4 10.52362938260107 21.273001066261553 0.3458488164154663 0.48110712381394727 3.5706826832976324E-4 1 
5 11.982562850119063 19.02247463950803 0.3244270998837427 0.4267517559851826 0.005394404854993817 1 
6 9.238167847827219 8.334720388119395 0.25920189381910563 0.6239795796445948 0.01561475679873403 1 
7 12.767595144039205 20.079215133716605 0.30441418508439083 0.4069263647124768 0.008739072982223539 1 
8 3.09961554636608 17.299047204651394 0.2525178196654951 0.7471112178423138 0.06533225790669889 1 
9 2.636095033425099 21.657565588290716 0.28178442623809763 0.6443644826687781 0.021294562237093362 1 
10 14.340523650094966 21.319090170438358 0.2678352838921687 0.41315874566569993 0.007599150543334876 1 
10
Time=801 Lattice="20.0 0.00000000 0.00000000 0.00000000 25.0 0.00000000 0.00000000 0.00000000 0.000000000000000001" Properties=id:I:1:pos:R:2:radius:R:1:color:R:3
1 10.561942420134136 6.230382445201104 0.34503676398026384 0.26542270451205147 0.05844197160332404 1 
2 1.6635420056710866 20.780325253963095 0.34487026068022447 0.7437899321058141 0.06346080473359261 1 
3 12.670633096411288 7.77737259634567 0.29103133032704187 0.14740790701545342 0.1454879184501932 1 
4 10.489493268652785 20.370233913891703 0.3458488164154663 0.48110712376767234 3.5706827007953024E-4 1 
5 11.850171852922866 18.128540933755783 0.3244270998837427 0.42674675621272834 0.005395145318363714 1 
6 9.462177172899255 7.4595212349347655 0.25920189381910563 0.6239795056820383 0.015614737867844064 1 
7 12.599483142213586 19.191864708176357 0.30441418508439083 0.40693091899936257 0.008738210155016468 1 
8 3.5461021797056143 16.513678824849954 0.2525178196654951 0.7471112178438186 0.06533225790755437 1 
9 2.9928572112906213 20.57025455254545 0.28178442623809763 0.6658321330258388 0.028301257521179624 1 
10 14.113138234896669 20.14283566074025 0.2678352838921687 0.39796359121506186 0.010522144237072761 1 
10
Time=1001 Lattice="20.0 0.00000000 0.00000000 0.00000000 25.0 0.00000000 0.00000000 0.00000000 0.000000000000000001" Properties=id:I:1:pos:R:2:radius:R:1:color:R:3
1 10.092200621333602 5.346126174283244 0.34503676398026384 0.26545679432451547 0.05842386310912662 1 
2 2.15151100060081 19.89814456416624 0.34487026068022447 0.7405548854990095 0.06166981958510043 1 
3 11.964552662862937 7.067447305279828 0.29103133032704187 0.14740790701924067 0.14548791844642645 1 
4 10.451659492554917 19.369678017098032 0.3458488164154663 0.48110712353864626 3.570682787396584E-4 1 
5 11.70342196607057 17.137728965809234 0.3244270998837427 0.4267407956076371 0.00539602814797574 1 
6 9.710441877356761 6.489537648335766 0.25920189381910563 0.6239716565259211 0.015612728926307329 1 
7 12.413180059275277 18.208441800188094 0.30441418508439083 0.4069361125168963 0.008737226276474108 1 
8 4.040952743018027 15.643238466433779 0.2525178196654951 0.7471112178433663 0.0653322579072973 1 
9 3.3962832505327643 19.48143229301885 0.28178442623809763 0.6805864586280111 0.03375057001622661 1 
10 13.854819655270493 18.97318881543569 0.2678352838921687 0.387034337766362 0.012928383955587486 1 
9
Time=1201 Lattice="20.0 0.00000000 0.00000000 0.00000000 25.0 0.00000000 0.00000000 0.00000000 0.000000000000000001" Properties=id:I:1:pos:R:2:radius:R:1:color:R:3
1 2.6645499158427675 18.957676454185634 0.34487026068022447 0.7385098785685952 0.06055371451655894 1 
2 11.21223313169965 6.311031099909615 0.29103133032704187 0.1474079584163257 0.1454878673277084 1 
3 10.411348090824442 18.30359861502364 0.3458488164154663 0.48110712225877067 3.5706832713527925E-4 1 
4 11.54703852448631 16.08196457425564 0.3244270998837427 0.42673459672413055 0.005396946347048681 1 
5 9.974888094956626 5.4563504066542885 0.25920189381910563 0.6239826894477076 0.015615552771031604 1 
6 12.214700030851066 17.160683711485053 0.30441418508439083 0.40694048052591475 0.008736398829251368 1 
7 4.568209635656148 14.715795491462217 0.2525178196654951 0.7471112178435937 0.06533225790742653 1 
8 3.8329256790428197 18.392439359989073 0.28178442623809763 0.690896922653917 0.037876245015185994 1 
9 13.5740974961475 17.808439915020852 0.2678352838921687 0.3791224272028182 0.014831356748334357 1 
8
Time=1401 Lattice="20.0 0.00000000 0.00000000 0.00000000 25.0 0.00000000 0.00000000 0.00000000 0.000000000000000001" Properties=id:I:1:pos:R:2:radius:R:1:color:R:3
1 3.1941357239597505 17.978062116956995 0.34487026068022447 0.7371540132300055 0.059820520686274636 1 
2 10.428940522698126 5.523473127524585 0.29103133032704187 0.1474078424424034 0.1454879826735362 1 
3 10.369376545060838 17.193615087174507 0.3458488164154663 0.48110711459310584 3.570686169953041E-4 1 
4 11.384188167871146 14.982630700976992 0.3244270998837427 0.4267293350345223 0.005397725788167551 1 
5 12.008068204442308 16.069862958237803 0.30441418508439083 0.40694010383746826 0.008736470185075895 1 
6 5.117180441553882 13.750157821278666 0.2525178196654951 0.7471112178430942 0.06533225790714253 1 
7 4.293316974780633 17.303983762450205 0.28178442623809763 0.698207172871714 0.04096414451352226 1 
8 13.277045392008652 16.647352186025007 0.2678352838921687 0.37335069065674176 0.01630593094097621 1 
7
Time=1601 Lattice="20.0 0.00000000 0.00000000 0.00000000 25.0 0.00000000 0.00000000 0.00000000 0.000000000000000001" Properties=id:I:1:pos:R:2:radius:R:1:color:R:3
1 3.7346251038299414 16.97215255566005 0.34487026068022447 0.7362262357068418 0.05932192525180513 1 
2 10.326292573564887 16.054213560595272 0.3458488164154663 0.48110706759634525 3.570703940753983E-4 1 
3 11.216995247065782 13.854046480446819 0.3244270998837427 0.42672669916841255 0.005398116274064613 1 
4 11.795963031446899 14.950234020091733 0.30441418508439083 0.40692385699579425 0.00873954809748767 1 
5 5.680700690071046 12.758927733933513 0.2525178196654951 0.7471112178429884 0.06533225790708241 1 
6 4.770781093093938 16.216400534254092 0.28178442623809763 0.7034596677969993 0.04326795209889783 1 
7 12.968012855435031 15.489033522114031 0.2678352838921687 0.3691095272382721 0.01743634187787063 1 
7
Time=1801 Lattice="20.0 0.00000000 0.00000000 0.00000000 25.0 0.00000000 0.00000000 0.00000000 0.000000000000000001" Properties=id:I:1:pos:R:2:radius:R:1:color:R:3
1 4.2822808855699295 15.948578044338953 0.34487026068022447 0.7355769696145662 0.058974500298205224 1 
2 10.282462950933047 14.895100671194175 0.3458488164154663 0.48110678299347437 3.5708115580751487E-4 1 
3 11.046888406728911 12.705799260416741 0.3244270998837427 0.42672888949416593 0.00539779179097688 1 
4 11.580118429069406 13.811327194160485 0.30441418508439083 0.40685886125783177 0.008751866900430672 1 
5 6.253969816094864 11.75054940616833 0.2525178196654951 0.7471112178431862 0.06533225790719482 1 
6 5.260603993055062 15.129808364143576 0.28178442623809763 0.7072824632938925 0.044990131523704124 1 
7 12.650166430585319 14.332860432644067 0.2678352838921687 0.36599110702990223 0.01829301789892135 1 
7
Time=2001 Lattice="20.0 0.00000000 0.00000000 0.00000000 25.0 0.00000000 0.00000000 0.00000000 0.000000000000000001" Properties=id:I:1:pos:R:2:radius:R:1:color:R:3
1 4.834629294979227 14.913137182415701 0.34487026068022447 0.7351149870831686 0.05872803981118235 1 
2 10.238132118637218 13.722781574740845 0.3458488164154663 0.4811051363752631 3.571434228218928E-4 1 
3 10.87483322522335 11.544307910792357 0.3244270998837427 0.42673854627589425 0.005396361317235421 1 
4 11.361508993227087 12.659432078849427 0.30441418508439083 0.40665026380697217 0.008791463070222993 1 
5 6.83377119322505 10.73068087223767 0.2525178196654951 0.7471112178432251 0.06533225790721697 1 
6 5.759450838421236 14.044205869231046 0.28178442623809763 0.7101014953766946 0.04628493342134127 1 
7 12.325953869537164 13.178475477795216 0.2678352838921687 0.36377015204933477 0.018916401726956966 1 
7
Time=2201 Lattice="20.0 0.00000000 0.00000000 0.00000000 25.0 0.00000000 0.00000000 0.00000000 0.000000000000000001" Properties=id:I:1:pos:R:2:radius:R:1:color:R:3
1 5.390035041362275 13.869727992884366 0.34487026068022447 0.7347821414584019 0.0585508567771289 1 
2 10.193456780580044 12.541622591142827 0.3458488164154663 0.48109634549493807 3.574759426963614E-4 1 
3 10.701488190062294 10.373870077805652 0.3244270998837427 0.42675863880931364 0.005393385597265377 1 
4 11.140253448610585 11.498416849472731 0.30441418508439083 0.4060550519614012 0.008904951421799645 1 
5 7.417949515750226 9.703113307123846 0.2525178196654951 0.7471112178434216 0.06533225790732872 1 
6 6.264957382275199 12.959531035655914 0.28178442623809763 0.7122101978678255 0.047267372590732826 1 
7 11.997653878092084 12.025953111667507 0.2678352838921687 0.36244428600965806 0.019293826180059093 1 
7
Time=2401 Lattice="20.0 0.00000000 0.00000000 0.00000000 25.0 0.00000000 0.00000000 0.00000000 0.000000000000000001" Properties=id:I:1:pos:R:2:radius:R:1:color:R:3
1 5.947419754401444 12.820971862727772 0.34487026068022447 0.7345401330045431 0.05842223107338024 1 
2 10.148508388024375 11.354592162345291 0.3458488164154663 0.4810548137148264 3.590489995640156E-4 1 
3 10.527308814286553 9.19736037840834 0.3244270998837427 0.4267924935837051 0.005388373565371862 1 
4 10.915147306759454 10.329801609148342 0.30441418508439083 0.4046253639541257 0.009180604703606876 1 
5 8.005060617600092 8.670386993741177 0.2525178196654951 0.7471112178427347 0.06533225790693814 1 
6 6.775444504322646 11.875697619287118 0.28178442623809763 0.7138138517891109 0.048022526243725216 1 
7 11.668184046744795 10.876360966264643 0.2678352838921687 0.3622725287577363 0.0193430083050789 1 
7
Time=2601 Lattice="20.0 0.00000000 0.00000000 0.00000000 25.0 0.00000000 0.00000000 0.00000000 0.000000000000000001" Properties=id:I:1:pos:R:2:radius:R:1:color:R:3
1 6.506075044253952 11.7686316909137 0.34487026068022447 0.7343630459721654 0.05832821837630525 1 
2 10.103201059391678 10.163889551314291 0.3458488164154663 0.4808853737288224 3.655025295859482E-4 1 
3 10.352616768362546 8.016685886653955 0.3244270998837427 0.42684480383932977 0.00538063394697752 1 
4 10.683402254626609 9.152087273269249 0.30441418508439083 0.4022159401339228 0.009654940234830711 1 
5 8.59413683067981 7.634204052265181 0.2525178196654951 0.7471112101256698 0.06533225351974059 1 
6 7.289719813063785 10.792617303230756 0.28178442623809763 0.7150587220906273 0.04861352916514394 1 
7 11.341699080939247 9.732739904385134 0.2678352838921687 0.3633790270680694 0.019027329513274016 1 
7
Time=2801 Lattice="20.0 0.00000000 0.00000000 0.00000000 25.0 0.00000000 0.00000000 0.00000000 0.000000000000000001" Properties=id:I:1:pos:R:2:radius:R:1:color:R:3
1 7.065538129369466 10.71389220053175 0.34487026068022447 0.7342328780322549 0.05825917230945604 1 
2 10.061752172093497 8.971764322076082 0.3458488164154663 0.48535328164723057 2.1457239982014542E-4 1 
3 10.177687354768365 6.833069487596052 0.3244270998837427 0.42707055089383317 0.005347298144373791 1 
4 10.443241581584685 7.961167202687568 0.30441418508439083 0.40048619731497026 0.010003058096109185 1 
5 9.18449152144895 6.595696115167503 0.2525178196654951 0.7469811119001472 0.06525831765913337 1 
6 7.806941477765609 9.710213567105791 0.28178442623809763 0.7160521159090991 0.049088164702675796 1 
7 11.021694435209486 8.599454486880356 0.2678352838921687 0.3648983591138083 0.018598352069855828 1 
7
Time=3001 Lattice="20.0 0.00000000 0.00000000 0.00000000 25.0 0.00000000 0.00000000 0.00000000 0.000000000000000001" Properties=id:I:1:pos:R:2:radius:R:1:color:R:3
1 7.625508817895187 9.657547947934178 0.34487026068022447 0.7341367128883782 0.05820819419343559 1 
2 10.023825622239144 7.785681738824042 0.3458488164154663 0.4746937062020201 6.408191549790443E-4 1 
3 10.21903626228746 5.696554555914232 0.3244270998837427 0.7186736347941315 0.05035364846812912 1 
4 10.199582816099456 6.755122813480228 0.30441418508439083 0.4021402115600339 0.009670048022267896 1 
5 9.564225231122233 5.507614034530177 0.2525178196654951 0.4708474722316226 8.505933843915847E-4 1 
6 8.326528523172934 8.628431895162707 0.28178442623809763 0.7168777618620313 0.04948469902819502 1 
7 10.715968574853092 7.472861627227579 0.2678352838921687 0.38089309382073727 0.01439363173409236 1 
5
Time=3201 Lattice="20.0 0.00000000 0.00000000 0.00000000 25.0 0.00000000 0.00000000 0.00000000 0.000000000000000001" Properties=id:I:1:pos:R:2:radius:R:1:color:R:3
1 8.185793708761691 8.600129495379642 0.34487026068022447 0.7340647982117703 0.058170089018315496 1 
2 9.877207194758569 6.664449470313556 0.3458488164154663 0.40214507344940514 0.00966907771406289 1 
3 9.976473534117304 5.541124723039068 0.30441418508439083 0.42878166478149204 0.005098041296355105 1 
4 8.848109981596165 7.5472530459730525 0.28178442623809763 0.7176095902792673 0.049837733457712585 1 
5 10.527274509206672 6.291961916387011 0.2678352838921687 0.4508573203501314 0.002420863543465712 1 
4
Time=3401 Lattice="20.0 0.00000000 0.00000000 0.00000000 25.0 0.00000000 0.00000000 0.00000000 0.000000000000000001" Properties=id:I:1:pos:R:2:radius:R:1:color:R:3
1 8.746267874026874 7.541988143738046 0.34487026068022447 0.7340089444547102 0.05814050432836415 1 
2 9.707988436776969 5.599760247739002 0.3458488164154663 0.45995622230274313 0.0016060836369161113 1 
3 9.370955689157176 6.467629211885656 0.28178442623809763 0.7183006334829228 0.05017244034968843 1 
4 10.350390769103761 5.092194410323777 0.2678352838921687 0.3784029577156238 0.01501117610022018 1 
2
Time=3601 Lattice="20.0 0.00000000 0.00000000 0.00000000 25.0 0.00000000 0.00000000 0.00000000 0.000000000000000001" Properties=id:I:1:pos:R:2:radius:R:1:color:R:3
1 9.306839646014614 6.483363940320415 0.34487026068022447 0.7339596806468688 0.058114417714703936 1 
2 9.891676808366919 5.405642365850301 0.28178442623809763 0.7211788239377795 0.051580633958009436 1 
1
Time=3801 Lattice="20.0 0.00000000 0.00000000 0.00000000 25.0 0.00000000 0.00000000 0.00000000 0.000000000000000001" Properties=id:I:1:pos:R:2:radius:R:1:color:R:3
1 9.867444912914626 5.424363989300802 0.34487026068022447 0.7338923822457974 0.05807879262544352 1 
