5
Time=1 Lattice="20.0 0.00000000 0.00000000 0.00000000 25.0 0.00000000 0.00000000 0.00000000 0.000000000000000001" Properties=id:I:1:pos:R:2:radius:R:1:color:R:3
1 11.212197226676782 10.838810521593972 0.3010531741580359 0.39300062791319135 0.011583032263385973 1 
2 3.776691630003356 24.61535659686428 0.32160027638192407 0.6526812819130708 0.023881919946972197 1 
3 15.196471085114753 18.29369112097481 0.3329605721215574 0.3159359175044415 0.035112472166580644 1 
4 15.588371561900654 24.378418237582864 0.26999140741366634 0.35990034824229733 0.0200290763208979 1 
5 17.177206798178986 24.195267394797757 0.32190397223203043 0.3234817241424942 0.032195234859355604 1 
5
Time=201 Lattice="20.0 0.00000000 0.00000000 0.00000000 25.0 0.00000000 0.00000000 0.00000000 0.000000000000000001" Properties=id:I:1:pos:R:2:radius:R:1:color:R:3
1 11.206087983049633 10.81092383221779 0.3010531741580359 0.393000628089533 0.011583032224754097 1 
2 3.7854091311667992 24.588172125645126 0.32160027638192407 0.6526812820038144 0.023881919976071753 1 
3 15.185961749383837 18.26714787014422 0.3329605721215574 0.31593591760993867 0.03511247212481089 1 
4 15.580372343808236 24.351013540011675 0.26999140741366634 0.35990010656997357 0.020029146863171254 1 
5 17.167128435704008 24.1685579256649 0.32190397223203043 0.32348195578238 0.032195147453998374 1 
5
Time=401 Lattice="20.0 0.00000000 0.00000000 0.00000000 25.0 0.00000000 0.00000000 0.00000000 0.000000000000000001" Properties=id:I:1:pos:R:2:radius:R:1:color:R:3
1 11.190697108067322 10.740669546092516 0.3010531741580359 0.39300062807647007 0.011583032227615864 1 
2 3.8073709285233917 24.519686921339108 0.32160027638192407 0.6526812819951878 0.02388191997330541 1 
3 15.159485824992279 18.20027807741716 0.3329605721215574 0.3159359176038448 0.03511247212722368 1 
4 15.560220027249875 24.281973531488223 0.26999140741366634 0.35989937149930235 0.020029361425399794 1 
5 17.14173832539174 24.1012693763849 0.32190397223203043 0.3234826607399441 0.032194881451100055 1 
5
Time=601 Lattice="20.0 0.00000000 0.00000000 0.00000000 25.0 0.00000000 0.00000000 0.00000000 0.000000000000000001" Properties=id:I:1:pos:R:2:radius:R:1:color:R:3
1 11.169087061017741 10.64202678339323 0.3010531741580359 0.3930006280828363 0.011583032226221202 1 
2 3.8382070879166843 24.42352809418192 0.32160027638192407 0.6526812819955178 0.02388191997341127 1 
3 15.122311462104014 18.106387420216357 0.3329605721215574 0.3159359176023058 0.03511247212783297 1 
4 15.531924315169132 24.185035733779117 0.26999140741366634 0.35989810628938956 0.020029730734599793 1 
5 17.106088746567487 24.00679073149208 0.32190397223203043 0.32348387393565425 0.032194423676634665 1 
5
Time=801 Lattice="20.0 0.00000000 0.00000000 0.00000000 25.0 0.00000000 0.00000000 0.00000000 0.000000000000000001" Properties=id:I:1:pos:R:2:radius:R:1:color:R:3
1 11.143309847687718 10.524362276154148 0.3010531741580359 0.3930006280716911 0.011583032228662804 1 
2 3.8749895279137005 24.30882651137272 0.32160027638192407 0.6526812819931225 0.023881919972643106 1 
3 15.077968593235852 17.994391389171877 0.3329605721215574 0.3159359175941848 0.035112472131048345 1 
4 15.498171814862333 24.0694050047963 0.26999140741366634 0.35989626012262554 0.020030269629039033 1 
5 17.063565088041166 23.89409329269228 0.32190397223203043 0.32348564408831904 0.032193755752358055 1 
5
Time=1001 Lattice="20.0 0.00000000 0.00000000 0.00000000 25.0 0.00000000 0.00000000 0.00000000 0.000000000000000001" Properties=id:I:1:pos:R:2:radius:R:1:color:R:3
1 11.114740417865288 10.393952218289755 0.3010531741580359 0.39300062807280706 0.011583032228418333 1 
2 3.915756282825401 24.181700325214862 0.32160027638192407 0.6526812819952266 0.023881919973317844 1 
3 15.02882245536609 17.870263823163544 0.3329605721215574 0.3159359175940689 0.03511247213109425 1 
4 15.460762596817688 23.941249082947742 0.26999140741366634 0.35989377156889946 0.02003099604785702 1 
5 17.016435830341983 23.769188286909277 0.32190397223203043 0.3234880299521934 0.03219285551646156 1 
5
Time=1201 Lattice="20.0 0.00000000 0.00000000 0.00000000 25.0 0.00000000 0.00000000 0.00000000 0.000000000000000001" Properties=id:I:1:pos:R:2:radius:R:1:color:R:3
1 11.08430005887796 10.255001983661193 0.3010531741580359 0.3930006280681963 0.01158303222942847 1 
2 3.9591927343750792 24.046249013537988 0.32160027638192407 0.6526812819979434 0.023881919974189092 1 
3 14.976457879351889 17.738007502572966 0.3329605721215574 0.31593591759357076 0.03511247213129148 1 
4 15.420902704327814 23.80470067967589 0.26999140741366634 0.35989056943599296 0.02003193078390131 1 
5 16.96622106957571 23.63610353831732 0.32190397223203043 0.3234910996266871 0.032191697285091025 1 
5
Time=1401 Lattice="20.0 0.00000000 0.00000000 0.00000000 25.0 0.00000000 0.00000000 0.00000000 0.000000000000000001" Properties=id:I:1:pos:R:2:radius:R:1:color:R:3
1 11.052606080783363 10.11032938981097 0.3010531741580359 0.393000628072139 0.011583032228564716 1 
2 4.004418020464968 23.905219438069327 0.32160027638192407 0.6526812819920784 0.02388191997230832 1 
3 14.921936783664032 17.600304496860087 0.3329605721215574 0.3159359175995643 0.03511247212891849 1 
4 15.37940014521552 23.66252893356718 0.26999140741366634 0.3598865718332465 0.020033097758439145 1 
5 16.913939452255615 23.497537888648175 0.32190397223203043 0.3234949314362482 0.032190251521726776 1 
5
Time=1601 Lattice="20.0 0.00000000 0.00000000 0.00000000 25.0 0.00000000 0.00000000 0.00000000 0.000000000000000001" Properties=id:I:1:pos:R:2:radius:R:1:color:R:3
1 11.02007211318551 9.961822519929596 0.3010531741580359 0.39300062807861336 0.01158303222714635 1 
2 4.050841918024403 23.76045213794382 0.32160027638192407 0.6526812819908785 0.023881919971923515 1 
3 14.865970708490408 17.458951930984647 0.3329605721215574 0.31593591760906714 0.035112472125156 1 
4 15.336796212660447 23.516589319502277 0.26999140741366634 0.3598816841503404 0.02003452461301447 1 
5 16.860273638141134 23.3552996923313 0.32190397223203043 0.3234996158808936 0.032188484103044035 1 
5
Time=1801 Lattice="20.0 0.00000000 0.00000000 0.00000000 25.0 0.00000000 0.00000000 0.00000000 0.000000000000000001" Properties=id:I:1:pos:R:2:radius:R:1:color:R:3
1 10.986975309266324 9.8107464872073 0.3010531741580359 0.39300062808322445 0.011583032226136158 1 
2 4.0980689471338 23.61318036938066 0.32160027638192407 0.6526812819896101 0.023881919971516785 1 
3 14.809036422480078 17.315153971432487 0.3329605721215574 0.31593591760716766 0.03511247212590801 1 
4 15.293453473584954 23.368125111226163 0.26999140741366634 0.3598757962878735 0.020036243520364927 1 
5 16.805681172255213 23.210600630679416 0.32190397223203043 0.32350525827327264 0.0321863553263802 1 
5
Time=2001 Lattice="20.0 0.00000000 0.00000000 0.00000000 25.0 0.00000000 0.00000000 0.00000000 0.000000000000000001" Properties=id:I:1:pos:R:2:radius:R:1:color:R:3
1 10.953501375961102 9.65794898277632 0.3010531741580359 0.3930006280853397 0.011583032225672751 1 
2 4.145834115834661 23.464230477698223 0.32160027638192407 0.6526812819889052 0.023881919971290688 1 
3 14.751453385235116 17.169717471904033 0.3329605721215574 0.3159359176070347 0.03511247212596069 1 
4 15.249614722114103 23.21796937700557 0.26999140741366634 0.3598687794604044 0.02003829212104513 1 
5 16.750468778148953 23.06425258239174 0.32190397223203043 0.32351198177367935 0.03218381876794185 1 
5
Time=2201 Lattice="20.0 0.00000000 0.00000000 0.00000000 25.0 0.00000000 0.00000000 0.00000000 0.000000000000000001" Properties=id:I:1:pos:R:2:radius:R:1:color:R:3
1 10.919774746501673 9.503998003448103 0.3010531741580359 0.39300062808696656 0.01158303222531637 1 
2 4.193959865838741 23.314156156913036 0.32160027638192407 0.6526812819962643 0.023881919973650634 1 
3 14.693435651178694 17.02318306602015 0.3329605721215574 0.3159359176051105 0.03511247212672253 1 
4 15.205442477967916 23.066680327315954 0.26999140741366634 0.3598604826113446 0.020040714574585228 1 
5 16.694842141716354 22.916799536796525 0.32190397223203043 0.3235199308653018 0.03218081997612354 1 
5
Time=2401 Lattice="20.0 0.00000000 0.00000000 0.00000000 25.0 0.00000000 0.00000000 0.00000000 0.000000000000000001" Properties=id:I:1:pos:R:2:radius:R:1:color:R:3
1 10.885878797576819 9.349274136403087 0.3010531741580359 0.39300062808759134 0.01158303222517948 1 
2 4.242327223926745 23.16332841059553 0.32160027638192407 0.6526812819985377 0.023881919974379662 1 
3 14.63512664782128 16.875913006213928 0.3329605721215574 0.3159359175920089 0.03511247213190988 1 
4 15.161045448635543 22.914632004910747 0.26999140741366634 0.35985072855703204 0.020043562691357097 1 
5 16.63893927271407 22.768605982389623 0.32190397223203043 0.32352927505389756 0.032177295081783075 1 
5
Time=2601 Lattice="20.0 0.00000000 0.00000000 0.00000000 25.0 0.00000000 0.00000000 0.00000000 0.000000000000000001" Properties=id:I:1:pos:R:2:radius:R:1:color:R:3
1 10.851869395870121 9.19403239469679 0.3010531741580359 0.39300062808315345 0.011583032226151702 1 
2 4.29085647190046 23.011995830281773 0.32160027638192407 0.6526812819950324 0.023881919973255616 1 
3 14.576622478999893 16.728150020309112 0.3329605721215574 0.3159359176046062 0.0351124721269222 1 
4 15.116496256202314 22.76207505202815 0.26999140741366634 0.3598393098143282 0.02004689715902852 1 
5 16.582852862916546 22.619916131581267 0.32190397223203043 0.32354021276433553 0.03217316933640496 1 
5
Time=2801 Lattice="20.0 0.00000000 0.00000000 0.00000000 25.0 0.00000000 0.00000000 0.00000000 0.000000000000000001" Properties=id:I:1:pos:R:2:radius:R:1:color:R:3
1 10.817783974942701 9.03844365023781 0.3010531741580359 0.39300062808235847 0.011583032226325896 1 
2 4.339494194453328 22.860324985135968 0.32160027638192407 0.6526812819995002 0.023881919974688304 1 
3 14.517987539244002 16.580056748471627 0.3329605721215574 0.31593591760281897 0.0351124721276298 1 
4 15.071843310518055 22.609177427684287 0.26999140741366634 0.3598259840173824 0.020050788891881943 1 
5 16.526645271962817 22.470893604202768 0.32190397223203043 0.323552975839675 0.03216835542583729 1 
5
Time=3001 Lattice="20.0 0.00000000 0.00000000 0.00000000 25.0 0.00000000 0.00000000 0.00000000 0.000000000000000001" Properties=id:I:1:pos:R:2:radius:R:1:color:R:3
1 10.783647617215317 8.882622396024336 0.3010531741580359 0.3930006280828198 0.01158303222622481 1 
2 4.388204600572595 22.708427485092823 0.32160027638192407 0.6526812819972871 0.02388191997397865 1 
3 14.459264976211212 16.431742168011695 0.3329605721215574 0.3159359176055823 0.03511247212653573 1 
4 15.027118759475592 22.456051690504257 0.26999140741366634 0.35981046889146473 0.020055320513323094 1 
5 16.470358574022374 22.321648017375047 0.32190397223203043 0.32356783425641167 0.032162751706293735 1 
5
Time=3201 Lattice="20.0 0.00000000 0.00000000 0.00000000 25.0 0.00000000 0.00000000 0.00000000 0.000000000000000001" Properties=id:I:1:pos:R:2:radius:R:1:color:R:3
1 10.749477129202559 8.726645348274516 0.3010531741580359 0.3930006280811086 0.011583032226599677 1 
2 4.436963708432305 22.5563781145692 0.32160027638192407 0.6526812819965918 0.02388191997375566 1 
3 14.400483701062845 16.283279299355712 0.3329605721215574 0.31593591760203055 0.035112472127941996 1 
4 14.98234381005967 22.302773279770143 0.26999140741366634 0.3597924366792564 0.02006058800338173 1 
5 16.41402129565054 22.172252801978466 0.32190397223203043 0.32358510154188735 0.03215624018053442 1 
5
Time=3401 Lattice="20.0 0.00000000 0.00000000 0.00000000 25.0 0.00000000 0.00000000 0.00000000 0.000000000000000001" Properties=id:I:1:pos:R:2:radius:R:1:color:R:3
1 10.715283772134624 8.570563910815276 0.3010531741580359 0.39300062807697034 0.011583032227506285 1 
2 4.485755448972408 22.404226982986582 0.32160027638192407 0.6526812819943395 0.02388191997303335 1 
3 14.341663085766443 16.1347170699561 0.3329605721215574 0.31593591760540574 0.035112472126605676 1 
4 14.937532286832685 22.14939276477652 0.26999140741366634 0.3597715078748145 0.02006670255513965 1 
5 16.357652937418194 22.022757140523172 0.32190397223203043 0.32360514073811 0.032148684274610595 1 
5
Time=3601 Lattice="20.0 0.00000000 0.00000000 0.00000000 25.0 0.00000000 0.00000000 0.00000000 0.000000000000000001" Properties=id:I:1:pos:R:2:radius:R:1:color:R:3
1 10.6810750916204 8.414412526864414 0.3010531741580359 0.39300062807559716 0.0115830322278071 1 
2 4.5345690550927 22.252007666242463 0.32160027638192407 0.6526812819971648 0.023881919973939403 1 
3 14.282816110540514 15.986088263729961 0.3329605721215574 0.3159359176037158 0.03511247212727475 1 
4 14.892693008497337 21.99594405263639 0.26999140741366634 0.35974724426917326 0.02007379264108833 1 
5 16.30126701147412 21.873193966035803 0.32190397223203043 0.32362837112461684 0.03213992633711077 1 
5
Time=3801 Lattice="20.0 0.00000000 0.00000000 0.00000000 25.0 0.00000000 0.00000000 0.00000000 0.000000000000000001" Properties=id:I:1:pos:R:2:radius:R:1:color:R:3
1 10.646856143607597 8.25821427515344 0.3010531741580359 0.39300062807527525 0.011583032227877599 1 
2 4.583397312279359 22.099742661921688 0.32160027638192407 0.6526812819955435 0.02388191997341954 1 
3 14.223951472800906 15.837414847593827 0.3329605721215574 0.31593591760019035 0.03511247212867058 1 
4 14.847831371458161 21.842449888009526 0.26999140741366634 0.3597191411542682 0.020082006337016067 1 
5 16.244873085759583 21.723585321716016 0.32190397223203043 0.32365527562424756 0.03212978489239143 1 
5
Time=4001 Lattice="20.0 0.00000000 0.00000000 0.00000000 25.0 0.00000000 0.00000000 0.00000000 0.000000000000000001" Properties=id:I:1:pos:R:2:radius:R:1:color:R:3
1 10.612630315839727 8.101984619622753 0.3010531741580359 0.3930006280766087 0.011583032227585499 1 
2 4.632235386437146 21.94744704456613 0.32160027638192407 0.6526812819959995 0.0238819199735657 1 
3 14.165075000265787 15.688711540514902 0.3329605721215574 0.3159359176042966 0.03511247212704477 1 
4 14.80295040087876 21.68892553822644 0.26999140741366634 0.35968661872228797 0.020091513896226876 1 
5 16.18847816377385 21.573945952170675 0.32190397223203043 0.32368640915551916 0.032118051551970006 1 
5
Time=4201 Lattice="20.0 0.00000000 0.00000000 0.00000000 25.0 0.00000000 0.00000000 0.00000000 0.000000000000000001" Properties=id:I:1:pos:R:2:radius:R:1:color:R:3
1 10.578399878280868 7.945733921910295 0.3010531741580359 0.39300062807679803 0.011583032227544032 1 
2 4.6810800384732385 21.795130914893928 0.32160027638192407 0.652681281998591 0.02388191997439676 1 
3 14.106190597806227 15.539988204961656 0.3329605721215574 0.3159359176006158 0.035112472128502104 1 
4 14.758051443683941 21.535381262498884 0.26999140741366634 0.3596490125944791 0.02010251059804935 1 
5 16.132087620420183 21.42428570979451 0.32190397223203043 0.32372240774132355 0.03210448766045659 1 
5
Time=4401 Lattice="20.0 0.00000000 0.00000000 0.00000000 25.0 0.00000000 0.00000000 0.00000000 0.000000000000000001" Properties=id:I:1:pos:R:2:radius:R:1:color:R:3
1 10.544166351923726 7.7894691248520544 0.3010531741580359 0.3930006280741185 0.011583032228131007 1 
2 4.729929098027194 21.642801040913284 0.32160027638192407 0.6526812819981392 0.023881919974251875 1 
3 14.047300881886498 15.39125144929655 0.3329605721215574 0.3159359175993085 0.035112472129019745 1 
4 14.713134620265352 21.381823966317288 0.26999140741366634 0.35960556355086437 0.020115219855714073 1 
5 16.075705841749134 21.27461116731581 0.32190397223203043 0.3237639984565983 0.032088820650762684 1 
5
Time=4601 Lattice="20.0 0.00000000 0.00000000 0.00000000 25.0 0.00000000 0.00000000 0.00000000 0.000000000000000001" Properties=id:I:1:pos:R:2:radius:R:1:color:R:3
1 10.50993075591378 7.633194880504413 0.3010531741580359 0.39300062807853636 0.011583032227163226 1 
2 4.7787811108459675 21.490461957533793 0.32160027638192407 0.6526812819981871 0.02388191997426725 1 
3 13.98840760567696 15.24250570146601 0.3329605721215574 0.3159359176016709 0.03511247212808438 1 
4 14.66819911306386 21.228258309776912 0.26999140741366634 0.359555406490332 0.02012989658251879 1 
5 16.01933666777066 21.124926698530345 0.32190397223203043 0.32381201011048455 0.03207074015542477 1 
5
Time=4801 Lattice="20.0 0.00000000 0.00000000 0.00000000 25.0 0.00000000 0.00000000 0.00000000 0.000000000000000001" Properties=id:I:1:pos:R:2:radius:R:1:color:R:3
1 10.475693773129898 7.47691430598462 0.3010531741580359 0.39300062808301583 0.0115830322261819 1 
2 4.827635102503711 21.33811670338415 0.32160027638192407 0.6526812819963275 0.023881919973670895 1 
3 13.9295119438895 15.09375392842084 0.3329605721215574 0.3159359176014457 0.03511247212817359 1 
4 14.623243344321988 21.074687449889534 0.26999140741366634 0.3594975588211745 0.02014683076717033 1 
5 15.962983704844584 20.97523520285678 0.32190397223203043 0.323867384584557 0.03204989391291335 1 
5
Time=5001 Lattice="20.0 0.00000000 0.00000000 0.00000000 25.0 0.00000000 0.00000000 0.00000000 0.000000000000000001" Properties=id:I:1:pos:R:2:radius:R:1:color:R:3
1 10.441455861135411 7.320629489923165 0.3010531741580359 0.3930006280763417 0.011583032227644008 1 
2 4.876490420086147 21.185767314501764 0.32160027638192407 0.6526812819977355 0.023881919974122423 1 
3 13.870614683640325 14.944998118169663 0.3329605721215574 0.3159359175916522 0.0351124721320511 1 
4 14.578265078064597 20.921113537496645 0.26999140741366634 0.35943090859039456 0.020166351179621844 1 
5 15.906650552220402 20.825538591377676 0.32190397223203043 0.32393118850562197 0.032025883601499605 1 
5
Time=5201 Lattice="20.0 0.00000000 0.00000000 0.00000000 25.0 0.00000000 0.00000000 0.00000000 0.000000000000000001" Properties=id:I:1:pos:R:2:radius:R:1:color:R:3
1 10.40721732652235 7.164341831808341 0.3010531741580359 0.3930006280849484 0.011583032225758516 1 
2 4.92534662610534 21.033415155133447 0.32160027638192407 0.6526812819946238 0.023881919973124555 1 
3 13.811716352336878 14.796239602781773 0.3329605721215574 0.31593591759035644 0.03511247213256413 1 
4 14.533261469800962 20.767538049501464 0.26999140741366634 0.35935420264514806 0.020188829135442177 1 
5 15.850340972546183 20.67583811329105 0.32190397223203043 0.3240046249260763 0.031998260737645445 1 
5
Time=5401 Lattice="20.0 0.00000000 0.00000000 0.00000000 25.0 0.00000000 0.00000000 0.00000000 0.000000000000000001" Properties=id:I:1:pos:R:2:radius:R:1:color:R:3
1 10.372978374722814 7.008052269372639 0.3010531741580359 0.3930006280844453 0.011583032225868706 1 
2 4.974203427423133 20.881061139394888 0.32160027638192407 0.6526812819921419 0.02388191997232869 1 
3 13.752817303374202 14.647479274814406 0.3329605721215574 0.31593591759130235 0.0351124721321896 1 
4 14.488229079842334 20.613962010547674 0.26999140741366634 0.3592660354705267 0.020214682146465657 1 
5 15.794059026226993 20.52613457572437 0.32190397223203043 0.32408904451232107 0.031966522843277945 1 
5
Time=5601 Lattice="20.0 0.00000000 0.00000000 0.00000000 25.0 0.00000000 0.00000000 0.00000000 0.000000000000000001" Properties=id:I:1:pos:R:2:radius:R:1:color:R:3
1 10.338739143387384 6.85176143094408 0.3010531741580359 0.39300062808459724 0.011583032225835399 1 
2 5.0230606276216845 20.728705879794013 0.32160027638192407 0.652681281989866 0.02388191997159883 1 
3 13.693917773543362 14.498717732324554 0.3329605721215574 0.31593591759506445 0.03511247213070012 1 
4 14.443163861136824 20.460386140254776 0.26999140741366634 0.3591648395908452 0.02024437721635025 1 
5 15.737809182675134 20.376428492389458 0.32190397223203043 0.32418595553963947 0.03193011016463537 1 
5
Time=5801 Lattice="20.0 0.00000000 0.00000000 0.00000000 25.0 0.00000000 0.00000000 0.00000000 0.000000000000000001" Properties=id:I:1:pos:R:2:radius:R:1:color:R:3
1 10.304499724747815 6.695469737534355 0.3010531741580359 0.39300062808736436 0.011583032225229217 1 
2 5.071918095091776 20.576349786740018 0.32160027638192407 0.6526812819959735 0.023881919973557375 1 
3 13.635017921506055 14.349955376040391 0.3329605721215574 0.31593591759972167 0.035112472128856154 1 
4 14.398061129323668 20.306810950224104 0.26999140741366634 0.3590488783253793 0.02027843356936071 1 
5 15.681596416804396 20.22672018499384 0.32190397223203043 0.32429703157589584 0.03188840338338311 1 
5
Time=6001 Lattice="20.0 0.00000000 0.00000000 0.00000000 25.0 0.00000000 0.00000000 0.00000000 0.000000000000000001" Properties=id:I:1:pos:R:2:radius:R:1:color:R:3
1 10.270260180605328 6.539177471242538 0.3010531741580359 0.3930006280863866 0.011583032225443435 1 
2 5.1207757416473605 20.423993135234706 0.32160027638192407 0.6526812819977997 0.023881919974143018 1 
3 13.576117853574901 14.201192474473316 0.3329605721215574 0.31593591760319406 0.03511247212748131 1 
4 14.352915520779174 20.153236806892934 0.26999140741366634 0.3589162426616104 0.020317424315535126 1 
5 15.625426295744003 20.07700985347319 0.32190397223203043 0.32442411576405406 0.03184072275050909 1 
5
Time=6201 Lattice="20.0 0.00000000 0.00000000 0.00000000 25.0 0.00000000 0.00000000 0.00000000 0.000000000000000001" Properties=id:I:1:pos:R:2:radius:R:1:color:R:3
1 10.2360205523682 6.382884821090153 0.3010531741580359 0.39300062808469777 0.011583032225813417 1 
2 5.169633508199036 20.271636109536317 0.32160027638192407 0.6526812819976582 0.02388191997409761 1 
3 13.517217640982578 14.052429207537037 0.3329605721215574 0.31593591760128603 0.03511247212823676 1 
4 14.307720943410445 19.99966397094779 0.26999140741366634 0.35876485371147626 0.02036197663982131 1 
5 15.569305058248311 19.92729762590235 0.32190397223203043 0.32456921985924686 0.031786329354634546 1 
5
Time=6401 Lattice="20.0 0.00000000 0.00000000 0.00000000 25.0 0.00000000 0.00000000 0.00000000 0.000000000000000001" Properties=id:I:1:pos:R:2:radius:R:1:color:R:3
1 10.2017808677842 6.226591913732308 0.3010531741580359 0.39300062808455405 0.011583032225844891 1 
2 5.218491355154399 20.119278833110293 0.32160027638192407 0.6526812819984106 0.023881919974338917 1 
3 13.458317331459579 13.903665695785797 0.3329605721215574 0.3159359176015032 0.03511247212815083 1 
4 14.26247052455122 19.846092620430614 0.26999140741366634 0.35859247307077946 0.02041276984498247 1 
5 15.51323968726944 19.777583595437097 0.32190397223203043 0.3247345162086862 0.03172442921779839 1 
5
Time=6601 Lattice="20.0 0.00000000 0.00000000 0.00000000 25.0 0.00000000 0.00000000 0.00000000 0.000000000000000001" Properties=id:I:1:pos:R:2:radius:R:1:color:R:3
1 10.167541145443042 6.070298834032631 0.3010531741580359 0.3930006280788923 0.011583032227085233 1 
2 5.267349255984645 19.96692138868038 0.32160027638192407 0.6526812819992561 0.023881919974610033 1 
3 13.399416956988379 13.754902019995347 0.3329605721215574 0.3159359176022221 0.03511247212786617 1 
4 14.21715656044438 19.69252286214893 0.26999140741366634 0.3583967236496055 0.020470530491781158 1 
5 15.457237974451854 19.62786784931788 0.32190397223203043 0.32492231996977594 0.03165418123438479 1 
5
Time=6801 Lattice="20.0 0.00000000 0.00000000 0.00000000 25.0 0.00000000 0.00000000 0.00000000 0.000000000000000001" Properties=id:I:1:pos:R:2:radius:R:1:color:R:3
1 10.13330139780238 5.914005638855443 0.3010531741580359 0.39300062807495134 0.011583032227948598 1 
2 5.31620719291528 19.81456383168037 0.32160027638192407 0.6526812820022645 0.02388191997557476 1 
3 13.340516538997662 13.606138234290032 0.3329605721215574 0.3159359175988966 0.03511247212918284 1 
4 14.171770472271529 19.538954734489593 0.26999140741366634 0.35817512388948436 0.020536023755447386 1 
5 15.401308573757127 19.478150493388284 0.32190397223203043 0.3251350588919432 0.031574709936284695 1 
5
Time=7001 Lattice="20.0 0.00000000 0.00000000 0.00000000 25.0 0.00000000 0.00000000 0.00000000 0.000000000000000001" Properties=id:I:1:pos:R:2:radius:R:1:color:R:3
1 10.099061633210422 5.757712366302029 0.3010531741580359 0.393000628076109 0.011583032227694967 1 
2 5.365065154034676 19.66220619925507 0.32160027638192407 0.6526812820100495 0.023881919978071264 1 
3 13.281616091846494 13.457374374934107 0.3329605721215574 0.31593591759896056 0.03511247212915747 1 
4 14.12630277450044 19.385388203574173 0.26999140741366634 0.3579251386996236 0.020610039960702986 1 
5 15.34546103991871 19.328431674473332 0.32190397223203043 0.3253752275542243 0.03148512419746902 1 
5
Time=7201 Lattice="20.0 0.00000000 0.00000000 0.00000000 25.0 0.00000000 0.00000000 0.00000000 0.000000000000000001" Properties=id:I:1:pos:R:2:radius:R:1:color:R:3
1 10.064848508766815 5.601416171993734 0.3010531741580359 0.39550309680176937 0.011041517895456043 1 
2 5.413923131362282 19.50984851628822 0.32160027638192407 0.6526812820046162 0.02388191997632888 1 
3 13.22271562515672 13.308610466230231 0.3329605721215574 0.315935917600804 0.03511247212842761 1 
4 14.080743062234014 19.23182315411336 0.26999140741366634 0.3576442501972996 0.020693375282470172 1 
5 15.289705846010147 19.178711602212957 0.32190397223203043 0.32564532269734187 0.03138454303908633 1 
5
Time=7401 Lattice="20.0 0.00000000 0.00000000 0.00000000 25.0 0.00000000 0.00000000 0.00000000 0.000000000000000001" Properties=id:I:1:pos:R:2:radius:R:1:color:R:3
1 10.038001785380638 5.44440591658358 0.3010531741580359 0.43535139091104874 0.004197057952593453 1 
2 5.462781119548479 19.357490799456432 0.32160027638192407 0.6526812820030112 0.023881919975814236 1 
3 13.163815145374961 13.159846524459802 0.3329605721215574 0.31593591759761663 0.0351124721296896 1 
4 14.035080025282747 19.07825937583458 0.26999140741366634 0.35733005141105023 0.02078680551384393 1 
5 15.23405437306185 19.02899057140354 0.32190397223203043 0.32594775669430476 0.03127212948208952 1 
5
Time=7601 Lattice="20.0 0.00000000 0.00000000 0.00000000 25.0 0.00000000 0.00000000 0.00000000 0.000000000000000001" Properties=id:I:1:pos:R:2:radius:R:1:color:R:3
1 10.023660098255226 5.286557646942442 0.3010531741580359 0.4742859311700705 6.616511179922679E-4 1 
2 5.511639115010665 19.205133059933104 0.32160027638192407 0.6526812820015184 0.023881919975335508 1 
3 13.10491465682006 13.011082560534815 0.3329605721215574 0.31593591759622897 0.03511247213023905 1 
4 13.989301497534843 18.924696546226354 0.26999140741366634 0.35698036469599903 0.02089105214209308 1 
5 15.178518863593437 18.879268985435246 0.32190397223203043 0.32628474683232944 0.031147133082358003 1 
5
Time=7801 Lattice="20.0 0.00000000 0.00000000 0.00000000 25.0 0.00000000 0.00000000 0.00000000 0.000000000000000001" Properties=id:I:1:pos:R:2:radius:R:1:color:R:3
1 10.0224818184973 5.128742796630379 0.3010531741580359 0.5208332473883591 4.3421273744592703E-4 1 
2 5.560497115348643 19.052775305204836 0.32160027638192407 0.6526812820003213 0.023881919974951593 1 
3 13.046014162388037 12.86231858176547 0.3329605721215574 0.31593591759820633 0.03511247212945612 1 
4 13.943394550742397 18.771134210286764 0.26999140741366634 0.35659338571500465 0.021006740152520964 1 
5 15.12311233021345 18.729547380987235 0.32190397223203043 0.32665817942964914 0.031008941192525175 1 
4
Time=8001 Lattice="20.0 0.00000000 0.00000000 0.00000000 25.0 0.00000000 0.00000000 0.00000000 0.000000000000000001" Properties=id:I:1:pos:R:2:radius:R:1:color:R:3
1 5.609355118953342 18.900417540288544 0.32160027638192407 0.6526812819993739 0.023881919974647836 1 
2 12.987113664018342 12.71355459304862 0.3329605721215574 0.3159359175994558 0.0351124721289614 1 
3 13.897345641768469 18.617571758022695 0.26999140741366634 0.356167850828369 0.02113434779192014 1 
4 15.067848410450175 18.579826453776413 0.32190397223203043 0.32706944986959813 0.03085713814276514 1 
4
Time=8201 Lattice="20.0 0.00000000 0.00000000 0.00000000 25.0 0.00000000 0.00000000 0.00000000 0.000000000000000001" Properties=id:I:1:pos:R:2:radius:R:1:color:R:3
1 5.658213124746949 18.748059768545037 0.32160027638192407 0.6526812819980801 0.023881919974232946 1 
2 12.928213163010335 12.564790597666395 0.3329605721215574 0.3159359176010693 0.03511247212832258 1 
3 13.851140821281907 18.46400840073697 0.26999140741366634 0.3557032226519759 0.021274149385084096 1 
4 15.012741159924554 18.43010708477075 0.32190397223203043 0.3275192828496566 0.030691570274618607 1 
4
Time=8401 Lattice="20.0 0.00000000 0.00000000 0.00000000 25.0 0.00000000 0.00000000 0.00000000 0.000000000000000001" Properties=id:I:1:pos:R:2:radius:R:1:color:R:3
1 5.707071132006938 18.595701992227095 0.32160027638192407 0.6526812819978581 0.023881919974161725 1 
2 12.869312660234108 12.416026597817758 0.3329605721215574 0.3159359175989439 0.03511247212916413 1 
3 13.804766009577987 18.31044314731063 0.26999140741366634 0.3551998844796382 0.021426153508896928 1 
4 14.957804778256726 18.280390365835075 0.32190397223203043 0.32800754101430385 0.030512413314203124 1 
4
Time=8601 Lattice="20.0 0.00000000 0.00000000 0.00000000 25.0 0.00000000 0.00000000 0.00000000 0.000000000000000001" Properties=id:I:1:pos:R:2:radius:R:1:color:R:3
1 5.755929140249715 18.44334421284444 0.32160027638192407 0.6526812819975449 0.023881919974061305 1 
2 12.810412156273214 12.267262594977096 0.3329605721215574 0.31593591760385525 0.03511247212721952 1 
3 13.758207341354995 18.156874782010238 0.26999140741366634 0.3546593293151959 0.02159004039956347 1 
4 14.903053265891149 18.130677623443425 0.32190397223203043 0.3285330346301041 0.030320236983922333 1 
4
Time=8801 Lattice="20.0 0.00000000 0.00000000 0.00000000 25.0 0.00000000 0.00000000 0.00000000 0.000000000000000001" Properties=id:I:1:pos:R:2:radius:R:1:color:R:3
1 5.804787149151048 18.290986431408136 0.32160027638192407 0.652681281995632 0.023881919973447907 1 
2 12.751511651518596 12.118498590131114 0.3329605721215574 0.31593591760127326 0.03511247212824181 1 
3 13.71145157573593 18.003301845653095 0.26999140741366634 0.35408432494096076 0.021765103979158706 1 
4 14.848500015554249 17.98097043870287 0.32190397223203043 0.32909334979458615 0.030116060164252556 1 
4
Time=9001 Lattice="20.0 0.00000000 0.00000000 0.00000000 25.0 0.00000000 0.00000000 0.00000000 0.000000000000000001" Properties=id:I:1:pos:R:2:radius:R:1:color:R:3