100
Time=1 Lattice="20.0 0.00000000 0.00000000 0.00000000 25.0 0.00000000 0.00000000 0.00000000 0.000000000000000001" Properties=id:I:1:pos:R:2:radius:R:1:color:R:3
1 11.583530090964441 18.33995498439754 0.2626546029861034 0.3498694126684251 0.023071486753542536 1 
2 8.151720925256646 5.496338812880052 0.2812877651340119 0.9576059672405297 0.2985135767703957 1 
3 19.429132798378962 7.1761564928197235 0.3436189422414406 0.01092820191295596 0.3960347350510489 1 
4 13.891346242549169 18.39849319230264 0.3026149368377005 0.35728647320506873 0.02079978164680224 1 
5 10.773505364248255 15.317334436351432 0.27521507677378265 0.4706386252460232 8.628348113551287E-4 1 
6 15.074183573258658 8.361878147485015 0.2898054714531635 0.08073419845091384 0.2275735188139701 1 
7 0.9847132485494776 11.011329866291623 0.3494694762687553 0.9176395545327851 0.2250869183002439 1 
8 11.125853627899735 12.165366809704148 0.3334597458436574 0.415757648920293 0.007147865699494604 1 
9 7.408106955649353 21.986486062158956 0.27539372637502857 0.5769198394031982 0.005952089057967791 1 
10 14.160193159456057 16.045858528180688 0.2814402614882528 0.3201171782169797 0.03347864954819252 1 
11 1.229189620693911 20.024564236008413 0.2620682998892038 0.7541293211405806 0.06939776111052598 1 
12 16.57031781790851 19.667037330828478 0.29365144658359227 0.2910966211875685 0.04573204127877373 1 
13 19.307666826078847 19.897409270233133 0.34179265377277557 0.2335309446599309 0.07692288817974186 1 
14 8.67237124398883 10.748629620399177 0.3079563269384306 0.6052863371169701 0.011210896994939434 1 
15 14.320158244968816 24.565970471713808 0.28236118145765043 0.422592302351713 0.006028291959153387 1 
16 10.783331974895571 16.09794323985647 0.31082484667798593 0.4210457270537875 0.006273129368539465 1 
17 11.34336589784357 10.03218007828722 0.26851546380996055 0.361812446548632 0.01947507861597303 1 
18 9.600245952571296 13.02648777702305 0.29727574243248345 0.531003936821078 9.621698692627301E-4 1 
19 14.268623950885699 12.145788649174923 0.26015365787112127 0.2392446293387962 0.0733776416180954 1 
20 18.909978792998203 8.765095265501515 0.272893327672596 0.03866639290472407 0.30720139273204905 1 
21 16.291745527459693 24.577747474037526 0.33951376235322217 0.2409245546712811 0.07235538863709973 1 
22 7.384436696359968 17.459981223658765 0.30564472388310265 0.7109468956785435 0.9533226303678051 1 
23 0.1535245262973932 21.436210142187363 0.2859181937496967 0.9999275150200797 0.4914864974394809 1 
24 19.221714374177502 5.342106253296535 0.3129273125982515 8.015654946627038E-4 0.47169941718938513 1 
25 19.000037133071466 11.705452318147447 0.29846369049063526 0.0974919152976047 0.2033735653229649 1 
26 3.9743621848209876 20.518413843267783 0.2573381227495641 0.6995424704207129 0.041543020013438015 1 
27 3.437076925003616 19.7953227361734 0.2720172086280678 0.7794428358657706 0.08537763991398634 1 
28 19.682189535644035 14.192930600873058 0.28723656239847556 0.13566132597835973 0.15757142261173213 1 
29 18.387870028705684 18.59017377723039 0.30685131781255487 0.5482358981698032 0.0023321407527381877 1 
30 13.902673246169531 23.853091993662034 0.2609921179759212 0.3615267664023325 0.01955732539978733 1 
31 12.266581306020454 24.451079643371333 0.3481008282070659 0.43963328650127076 0.0036575175331429177 1 
32 3.3317876293510045 15.462584493431274 0.3291544878204917 0.7580998638121905 0.07176588143851881 1 
33 2.9425586626569866 16.30749426115999 0.34788714387252184 0.8009489060297755 0.10071344129875681 1 
34 1.8532763549195796 7.485335811491145 0.2605027542346803 0.9900096609601254 0.400548845327252 1 
35 1.570010613000735 22.01696775066574 0.27444222122745787 0.7240514364817571 0.05300900030262223 1 
36 14.411997664997532 23.10108301726266 0.3064327674567447 0.4283833330082819 0.005155526443916536 1 
37 2.5541724907659225 5.397124299154576 0.25193635899150985 0.999306602635377 0.4736766916076696 1 
38 15.955263173441411 18.716381876509686 0.3254005832254652 0.2973565322647346 0.04290523413166669 1 
39 5.757767917556082 11.805237990569422 0.2591022063623524 0.768890233532642 0.07845754388109222 1 
40 0.2160366089805733 15.253981009689609 0.28368978690280955 0.9997610015769279 0.4845422736851163 1 
41 8.92214031456898 5.67987989933047 0.29034288918320905 0.9754216375496447 0.34516374278091655 1 
42 17.109245750582946 24.89281915786699 0.3107093357154297 0.49817001122566246 3.348870129149528E-6 1 
43 9.360471773387003 24.01556463679982 0.25006878448547804 0.509046998458617 8.185488133183316E-5 1 
44 9.470838064473615 24.85519509011136 0.2930165125943351 0.5004408502813934 1.943490083866628E-7 1 
45 4.138113790970176 12.114165909492073 0.3088417188201996 0.8211914835345546 0.11680810172333772 1 
46 2.596014122352103 19.68479516542083 0.3195192514904561 0.6083361477422943 0.011877803114466234 1 
47 7.108313879728558 11.298841703882763 0.2618961323417783 0.7144683436870095 0.04833272250897919 1 
48 17.577248352708427 18.37858326708024 0.3456286058475191 0.13482253721102994 0.15846607683714586 1 
49 9.391037366264085 14.983312676724914 0.3491953356441449 0.5352203337501574 0.0012420145095143331 1 
50 15.964610204133233 7.1774587784215536 0.2828532659513138 0.02943406571119972 0.33098017427855253 1 
51 6.76143998701087 20.144857435751792 0.28787148833236514 0.7254274558199314 0.05370137557622601 1 
52 7.505315491165402 24.155206543463258 0.2753637338441067 0.5669850255284663 0.0045073094838323224 1 
53 0.692173821485595 9.653282241308002 0.3382565546614806 0.9479551908263769 0.27788258282677547 1 
54 1.6875394559864692 6.571731390755967 0.3308770041909566 0.9809736506925026 0.36338247791909517 1 
55 3.435658200643695 10.811738733386006 0.343367268337752 0.9678622970584038 0.3236342692266041 1 
56 13.756027673770301 14.999268792768094 0.2908581537137307 0.3209102797908311 0.03317361673165731 1 
57 4.482982777953378 16.324785860639544 0.3073514443990166 0.9711735872892282 0.33268158905547784 1 
58 2.7730486028680628 10.316005302177391 0.2671010934990024 0.7480491513590848 0.06586681938598854 1 
59 0.2682721334397646 17.631707886950828 0.28378971841529016 0.9962725268168363 0.4390608571865958 1 
60 17.860168809039624 19.823527033112995 0.3273968780148352 0.4093818201969604 0.008280216496037274 1 
61 1.0510431208938327 15.441645196675976 0.3416923744237594 0.9132080230495654 0.21847001991356269 1 
62 7.92079238197562 20.205187969084545 0.2729470563169935 0.5633646492368917 0.004031330397689659 1 
63 17.68373728491298 24.245304962505486 0.3414141855188825 0.4650245888431733 0.0012247794703400539 1 
64 9.258234875973335 9.9479734495171 0.3317168050894295 0.599444392232652 0.009988966600262716 1 
65 11.612700785125336 17.523911129075177 0.34947273674002954 0.4601367983120149 0.00159160806504971 1 
66 12.656039167433553 14.55070468603082 0.26389562859530097 0.3605612504441873 0.019836657873269825 1 
67 18.049188633991985 16.15462008938598 0.32940115138908593 0.20507024625459586 0.09624705529782784 1 
68 6.356128494849834 20.69635337145807 0.28345239461821736 0.03231089364780482 0.6768244886871868 1 
69 19.546363098281844 23.154555188154625 0.2833611858472152 0.26874681244579024 0.05669202212680913 1 
70 9.619715180217272 21.79167577558135 0.290409037460875 0.5458336959311365 0.0021051593787176914 1 
71 11.924304609950545 20.189840921227553 0.26841595177469896 0.4308145837311443 0.004809755572966534 1 
72 7.835625089320084 23.000950974813275 0.255448647160324 0.5631024362816616 0.003997900674484189 1 
73 2.460262459345014 12.51982082792185 0.3433047324575018 0.8563131969323801 0.149228128704956 1 
74 8.97101395570981 22.48032396706447 0.32691641659273185 0.49751122466368486 6.194041040796794E-6 1 
75 3.804463809334496 16.370360898362154 0.3015290834210687 0.03365389390002671 0.3196633444765251 1 
76 8.99413895082416 20.105749964079415 0.3418262200991676 0.5458376764022725 0.002105525816925191 1 
77 11.323917597242167 8.823514694918691 0.3388663863091297 0.32614488754512416 0.031198976245462473 1 
78 17.063475255001368 10.279737347937449 0.32037422116560416 0.09753016416643873 0.2033216704170892 1 
79 17.49728164356589 5.298025110632071 0.27645287634160465 3.8488633554384366E-4 0.4803852555955339 1 
80 7.398889788720494 5.737908030980943 0.3374687971376018 0.9943860258644832 0.42528415542923637 1 
81 2.3655174111547264 16.78176392256132 0.2917644544711819 0.018902475830359144 0.636180660293016 1 
82 19.41690450101988 24.198512050263375 0.2762611193732058 0.2746454334002872 0.05366456637114775 1 
83 13.294188451275911 20.789848312479982 0.2906742307691982 0.39464241379985865 0.011226249651150155 1 
84 7.180763490777848 16.843466730046703 0.3355128444739142 0.38241596979820236 0.014022638550412803 1 
85 17.29590373917332 20.477675773719675 0.31484703023805627 0.12439176550099185 0.16997204031091834 1 
86 18.694058367811465 6.317645219662288 0.3443395065706016 0.0052024131397489515 0.4280601081647164 1 
87 5.615736524737512 13.599626050886036 0.31467201533784467 0.7311392974447724 0.05663262955339504 1 
88 6.872318740267378 18.31349558319276 0.32045514366530203 0.60823365849376 0.011855067455313895 1 
89 15.530426570386464 14.602919489183089 0.31242659753120894 0.24665965089343556 0.06893310552239801 1 
90 12.083817971447962 19.152975041739413 0.32911349607905677 0.440647012613031 0.0035352752830848932 1 
91 18.677233325547547 21.48624235580016 0.331161617823491 0.2623941150982224 0.060064273489816244 1 
92 16.720249725115867 14.970705403337169 0.27365362386862035 0.21816212647931027 0.08700192125224637 1 
93 10.001468535237613 17.1667682284022 0.30871606987583744 0.5037203411538673 1.3841129878011671E-5 1 
94 0.14919379334939026 18.843403330538333 0.2906357865108021 0.9999431369980737 0.4924594583400588 1 
95 12.853317434323301 7.72336926080016 0.25418808880139543 0.13248703939031758 0.16098049645498858 1 
96 14.375769574221074 20.0844822668995 0.2752821229871705 0.35813433219237595 0.020548091778229693 1 
97 5.010119873426177 20.697227452503586 0.32604902322415574 0.6623725070008815 0.027099197536894937 1 
98 3.6441217250195885 14.586284406575809 0.3201635809959235 0.76284396587568 0.0746612531137748 1 
99 19.792923181551146 21.02546031349916 0.3208931653928997 9.61006535611375E-5 0.49019737697218163 1 
100 13.422533169329938 23.149543413640767 0.28220994619937334 0.3647437877906745 0.018641758085741422 1 
100
Time=201 Lattice="20.0 0.00000000 0.00000000 0.00000000 25.0 0.00000000 0.00000000 0.00000000 0.000000000000000001" Properties=id:I:1:pos:R:2:radius:R:1:color:R:3
1 11.57086980794727 18.2952755900969 0.2626546029861034 0.37361972524904064 0.01623556749811378 1 
2 8.2359953154544 5.458487945755513 0.2812877651340119 0.9550513975568634 0.29280872223583965 1 
3 19.360710023123193 7.161609605130632 0.3436189422414406 0.010933577645467596 0.3960094498267359 1 
4 13.8709752355041 18.330091888280396 0.3026149368377005 0.3572864818334398 0.020799779077134706 1 
5 10.76708427107544 15.212634928641812 0.27521507677378265 0.4682525791082025 0.0010089166460796606 1 
6 15.014337085961792 8.322991901915623 0.2898054714531635 0.08073268502388459 0.22757584800036762 1 
7 1.0443063893034585 10.97210382103262 0.3494694762687553 0.9176488719644584 0.22510107358009673 1 
8 11.113828849968703 12.09501688332233 0.3334597458436574 0.41575781349745244 0.007147837568637627 1 
9 7.419133492033799 21.91566391500632 0.27539372637502857 0.5769200854086911 0.005952127359382664 1 
10 14.134682947060266 15.979698494213347 0.2814402614882528 0.3201170403098911 0.03347870272288034 1 
11 1.2654661252261767 19.963126918894627 0.2620682998892038 0.7543505070105447 0.0695283754026535 1 
12 16.540350584427436 19.60184779646888 0.29365144658359227 0.2912265626082187 0.045672307866205464 1 
13 19.26945834906805 19.836288252654484 0.34179265377277557 0.2358547955860522 0.07546812724471003 1 
14 8.686415871067638 10.683674427667468 0.3079563269384306 0.6060531618488771 0.011376702497869151 1 
15 14.310820038992325 24.50724787219618 0.28236118145765043 0.42037760676064995 0.006380435461844469 1 
16 10.778145905422377 16.060326121129805 0.31082484667798593 0.438502382778971 0.003796369344060746 1 
17 11.323705998512521 9.963815295266635 0.26851546380996055 0.36181495840732136 0.019474356272186355 1 
18 9.604671438829042 12.955255205525994 0.29727574243248345 0.5310037887224489 9.621606682978512E-4 1 
19 14.231403683646606 12.08489249909248 0.26015365787112127 0.2392446293056969 0.07337764163832605 1 
20 18.844128007024448 8.737575208134741 0.272893327672596 0.03866625273057456 0.30720172814480445 1 
21 16.229987426493203 24.511486413630635 0.33951376235322217 0.1495414242042567 0.14337865087572332 1 
22 7.462187763779613 17.56296565160861 0.30564472388310265 0.9471465870360487 0.7237407645066347 1 
23 0.9933172687839551 21.390251644092135 0.2859181937496967 0.9956387832765266 0.4341046548520735 1 
24 19.15115014126274 5.338092308109494 0.3129273125982515 8.126771438269897E-4 0.4715040932818961 1 
25 18.942583058702823 11.663111809004207 0.29846369049063526 0.09749191531955381 0.20337356529318096 1 
26 4.001868989333137 20.455318435505273 0.2573381227495641 0.7000785997842622 0.04177674228781331 1 
27 3.4805352074143165 19.728916363523687 0.2720172086280678 0.7683540457483585 0.07811600394126361 1 
28 19.630183769567537 14.14405228582121 0.28723656239847556 0.13566132598787756 0.15757142260160528 1 
29 18.386122576117344 18.539007301287757 0.30685131781255487 0.4331958370972732 0.004482892506357639 1 
30 13.883214414213585 23.7851087193208 0.2609921179759212 0.36329584870088943 0.019050964220126643 1 
31 12.257964583352571 24.380231981104743 0.3481008282070659 0.43963314338706666 0.003657534939157603 1 
32 3.3733907012174917 15.392556371507963 0.3291544878204917 0.7537598149327664 0.06917990259820966 1 
33 2.9942365045561026 16.207563065323523 0.34788714387252184 0.6295649562835695 0.017078762008506443 1 
34 1.9227690748346358 7.471138662888703 0.2605027542346803 0.9897501438198957 0.39927861881213345 1 
35 1.6024338874256232 21.953489408202945 0.27444222122745787 0.7383468957748178 0.06046529457333166 1 
36 14.401044987668836 23.026596123237216 0.3064327674567447 0.42612993946374533 0.005486891825535023 1 
37 2.625448649121637 5.393366496185171 0.25193635899150985 0.9993064935958773 0.4736746234026898 1 
38 15.92604562382017 18.650476888653916 0.3254005832254652 0.29735714767474153 0.04290496130292171 1 
39 5.79614767357795 11.745069542085004 0.2591022063623524 0.7688899534239249 0.07845736520764646 1 
40 0.5517471849316122 15.179249180764051 0.28368978690280955 0.8022444867827001 0.10169324609107844 1 
41 9.011222170912278 5.650593487250202 0.29034288918320905 0.9743783380333757 0.34199622661248785 1 
42 16.95780119306215 24.033861915689716 0.3107093357154297 0.2934420706481802 0.04466076182489104 1 
43 9.316941651237885 23.472404854079063 0.25006878448547804 0.45292572497923034 0.002220919853727743 1 
44 9.51824570766091 24.357683340542824 0.2930165125943351 0.8164711087010796 0.11290048132617186 1 
45 4.183957930619525 12.059474211405274 0.3088417188201996 0.8212049185911137 0.1168193633899593 1 
46 2.611753525695571 19.61905384325092 0.3195192514904561 0.6239837882385305 0.015615834018056274 1 
47 7.138928362054052 11.234368085063865 0.2618961323417783 0.7144685922484528 0.0483328405352379 1 
48 17.50570015356857 18.30722248811024 0.3456286058475191 0.15640298057511753 0.1367630411944058 1 
49 9.396064030916486 14.912116136201732 0.3491953356441449 0.5352066322542453 0.0012410471527209421 1 
50 15.897443098704539 7.153333225316411 0.2828532659513138 0.02943496468711565 0.330977671472128 1 
51 6.822066755487793 20.013085566214777 0.28787148833236514 0.6940165029821688 0.03917726122665116 1 
52 7.514863270713766 24.084581038628297 0.2753637338441067 0.5669851590187942 0.00450732753023797 1 
53 0.7561300428372424 9.621568354610158 0.3382565546614806 0.947947364044 0.2778667988660135 1 
54 1.7565303549934166 6.552229701883213 0.3308770041909566 0.9813222670619621 0.3646158235600141 1 
55 3.5106697459774834 10.78067708669815 0.343367268337752 0.9561284428645999 0.2951907140534993 1 
56 13.73034026238763 14.932307323361565 0.2908581537137307 0.32092496042449903 0.033167985029911695 1 
57 4.631168614515528 16.252812529893696 0.3073514443990166 0.9251542083636547 0.23685764478010368 1 
58 2.809575865560443 10.258225246267395 0.2671010934990024 0.783766377145342 0.08832458999618709 1 
59 0.40183384715709886 17.580641016381836 0.28378971841529016 0.9242030559741166 0.23532705596865294 1 
60 17.8427925273689 19.74176257249034 0.3273968780148352 0.38385834744840525 0.013675914083432772 1 
61 1.2216645020442394 15.423548433520246 0.3416923744237594 0.999993053190736 0.4973643291165485 1 
62 7.929830419625027 20.134684589197327 0.2729470563169935 0.5637916932822655 0.004086076150123241 1 
63 17.83170194551196 23.73007153694676 0.3414141855188825 0.6575821277939524 0.025481430289677254 1 
64 9.273333833222344 9.873297765444875 0.3317168050894295 0.5987337603098718 0.009845285062896947 1 
65 11.604130645754518 17.422814556650483 0.34947273674002954 0.4555664391473885 0.0019782548221842222 1 
66 12.636106019049096 14.482068226062879 0.26389562859530097 0.36054511676187845 0.019841343365506026 1 
67 18.00709041431575 16.09698846708714 0.32940115138908593 0.20507024631144977 0.09624705525629773 1 
68 6.327181945263754 20.688985509314946 0.28345239461821736 0.20659659432111788 0.09513651493863601 1 
69 19.51299343373255 23.090589445674283 0.2833611858472152 0.26872794742238204 0.056701863644188666 1 
70 9.626625038705747 21.715153106755352 0.290409037460875 0.544098016263454 0.0019484314233834676 1 
71 11.914637486715968 20.120657421490087 0.26841595177469896 0.430797277734215 0.00481217378553761 1 
72 7.844596460270567 22.930416068494164 0.255448647160324 0.5630702301069045 0.003993804399317902 1 
73 2.511122224645874 12.469752022761888 0.3433047324575018 0.8563131771289976 0.1492281085887303 1 
74 8.9708330142481 22.414227352976308 0.32691641659273185 0.4996545011181555 1.193694916246102E-7 1 
75 3.7680056236782753 16.323317237302366 0.3015290834210687 0.6141812252567583 0.013211906679235441 1 
76 9.000709878718881 20.03444290458731 0.3418262200991676 0.545925551446309 0.0021136236807112185 1 
77 11.299021595699683 8.756383206598057 0.3388663863091297 0.3261416951477091 0.031200160160129886 1 
78 17.006026640130123 10.237389431180944 0.32037422116560416 0.09753016422111382 0.2033216703429177 1 
79 17.425963761104992 5.295225169981162 0.27645287634160465 3.848983471393397E-4 0.480384949645701 1 
80 7.4252621477642125 5.732826742193508 0.3374687971376018 0.9889789944217032 0.39559912349821996 1 
81 2.338426036777898 16.776878401524 0.2917644544711819 0.2190639206006642 0.08638796041250191 1 
82 19.385093948991454 24.13550476953203 0.2762611193732058 0.2746665942773514 0.053653882882989334 1 
83 13.279153601515636 20.720101148191198 0.2906742307691982 0.3946354591722195 0.011227748807124904 1 
84 7.13905165909717 16.595884700415702 0.3355128444739142 0.4508460237997327 0.0024219793603182382 1 
85 17.249519969423087 20.433079441703494 0.31484703023805627 0.1535566488512406 0.1394767629613628 1 
86 18.621566130510587 6.307121449096012 0.3443395065706016 0.005170465780485745 0.4282801836024479 1 
87 5.648729346516829 13.536339796026343 0.31467201533784467 0.7311393013636915 0.05663263159643267 1 
88 6.885370157465368 18.24970693146241 0.32045514366530203 0.5915012757271595 0.008443780895509012 1 
89 15.494220080555996 14.54131375776257 0.31242659753120894 0.2466546712792131 0.068936032107349 1 
90 12.075817942742688 19.085132245955574 0.32911349607905677 0.4422560611916811 0.003345555208753681 1 
91 18.619864593992506 21.441046434911183 0.331161617823491 2.59542322292583E-4 0.483891773527929 1 
92 16.680072611334637 14.91183021226021 0.27365362386862035 0.21816658309795944 0.08699888000476247 1 
93 10.00199574175975 17.095458143664874 0.30871606987583744 0.5036710006165995 1.3476427141168035E-5 1 
94 1.0487562107962536 18.8001779015453 0.2906357865108021 0.9967674685763037 0.44323661246638674 1 
95 12.800858579296559 7.67497756138217 0.25418808880139543 0.1324870745593837 0.16098045833008384 1 
96 14.355515983901633 20.01603094231466 0.2752821229871705 0.3581417946275779 0.020545883771433515 1 
97 5.033362048764002 20.629556117204046 0.32604902322415574 0.6624621196588871 0.027129975917333682 1 
98 3.688418413359348 14.5146680608894 0.3201635809959235 0.7631585148697346 0.07485579381631502 1 
99 19.089448423940702 20.96258864164378 0.3208931653928997 0.032813693303096636 0.32185131256473726 1 
100 13.400889722144777 23.071989145475275 0.28220994619937334 0.3664633875004679 0.01816188079174369 1 
100
Time=401 Lattice="20.0 0.00000000 0.00000000 0.00000000 25.0 0.00000000 0.00000000 0.00000000 0.000000000000000001" Properties=id:I:1:pos:R:2:radius:R:1:color:R:3
1 11.53870262614172 18.15730838877684 0.2626546029861034 0.3940950844155212 0.011344549958721528 1 
2 8.41780275304139 5.376469476936939 0.2812877651340119 0.9580139223757944 0.29944265929679914 1 
3 19.188360448667684 7.124948693692589 0.3436189422414406 0.01095047563725865 0.3959300104709505 1 
4 13.819655038845665 18.157770074854486 0.3026149368377005 0.3572865123273244 0.02079976999556743 1 
5 10.751251873456395 14.97824236850372 0.27521507677378265 0.4647164138742842 0.0012464851751827766 1 
6 14.863565840171626 8.225028471073 0.2898054714531635 0.08072700051111398 0.22758459680188314 1 
7 1.1944403226907803 10.87329629373626 0.3494694762687553 0.9176798072987148 0.22514807882259857 1 
8 11.083535229227726 11.917785878577721 0.3334597458436574 0.4157584146574993 0.0071477348139889485 1 
9 7.44691317533813 21.737239062815934 0.27539372637502857 0.5769201033295551 0.005952130149546597 1 
10 14.070412478843755 15.813015089469012 0.2814402614882528 0.3201166340980547 0.033478859351704304 1 
11 1.356850185536191 19.808572868685573 0.2620682998892038 0.7544579720966695 0.06959189083330397 1 
12 16.46497724897971 19.437676278761714 0.29365144658359227 0.2915220619493474 0.04553663585922768 1 
13 19.17406878174618 19.680923678317836 0.34179265377277557 0.24265588310223807 0.07131129534578234 1 
14 8.722435171736935 10.519302737239254 0.3079563269384306 0.6079651874113104 0.011795618303931443 1 
15 14.285674917197756 24.35642284774473 0.28236118145765043 0.4154026828233345 0.007208671011237622 1 
16 10.764777203505947 15.936135078039113 0.31082484667798593 0.45100001947644563 0.0024067907329408667 1 
17 11.274180951101922 9.791591406739416 0.26851546380996055 0.36182286572856875 0.019472082429610682 1 
18 9.61582034001857 12.77580072717999 0.29727574243248345 0.5310032484661407 9.621271040175516E-4 1 
19 14.137635532502287 11.931478248510244 0.26015365787112127 0.2392446293059199 0.07337764163818972 1 
20 18.678231567745 8.66824484171905 0.272893327672596 0.03866575110938941 0.30720292844408614 1 
21 16.10619575182758 24.361489663189616 0.33951376235322217 0.2184426742311989 0.08681060964017817 1 
22 7.573044855279739 17.523589850030923 0.30564472388310265 0.8556254425598584 0.14853087674149118 1 
23 1.6246484900659495 21.170375575598523 0.2859181937496967 0.907567471216574 0.21036444208949917 1 
24 18.973478296686476 5.3278462293338915 0.3129273125982515 8.472648362986557E-4 0.47090451961909174 1 
25 18.797840349181268 11.556444351858659 0.29846369049063526 0.09749191531350326 0.20337356530139128 1 
26 4.071245676051536 20.296926562249343 0.2573381227495641 0.7009941201974406 0.042177585033173814 1 
27 3.5817222082005973 19.55985898427066 0.2720172086280678 0.7466550541809357 0.06507324266377945 1 
28 19.499166856059 14.020914286728697 0.28723656239847556 0.13566132600138026 0.15757142258723872 1 
29 18.348641223165508 18.401609554349726 0.30685131781255487 0.328979871150001 0.030157350245712866 1 
30 13.835469101860289 23.614199777142968 0.2609921179759212 0.3675358755822009 0.017865935924222587 1 
31 12.236256573910238 24.20174718058699 0.3481008282070659 0.4396326733171788 0.0036575921108800147 1 
32 3.482651494855214 15.209056053178081 0.3291544878204917 0.7597168829250456 0.07274464225278798 1 
33 3.0033296484850274 16.01409638777287 0.34788714387252184 0.5039087836864099 1.5278823349562654E-5 1 
34 2.09767469081418 7.434551103480467 0.2605027542346803 0.9890647896237541 0.3960017714080033 1 
35 1.725990624204009 21.867919901121102 0.27444222122745787 0.9965179567132838 0.4410939845069653 1 
36 14.372088736862437 22.84009086236711 0.3064327674567447 0.42055411943937115 0.006351995788551501 1 
37 2.805014499918264 5.383897899490463 0.25193635899150985 0.9993061270508092 0.4736676721590902 1 
38 15.852439788485722 18.48444644423767 0.3254005832254652 0.29735682349189585 0.042905105022266354 1 
39 5.892836447821922 11.5934888282962 0.2591022063623524 0.7688890730840701 0.07845680366540175 1 
40 0.6669289784627852 14.959169424242585 0.28368978690280955 0.7425209706667825 0.06275455544186437 1 
41 9.229095601743388 5.573972727483607 0.29034288918320905 0.9683232083138035 0.3248618472329178 1 
42 16.717549528708215 23.466217124457017 0.3107093357154297 0.3121852041671015 0.03661506016461147 1 
43 9.27190600272571 22.67483749614007 0.25006878448547804 0.5792884436465575 0.006326684229229718 1 
44 9.600565929538023 24.189769433386388 0.2930165125943351 0.6555110904478061 0.02479867345751835 1 
45 4.299459060787199 11.921705202396243 0.3088417188201996 0.821258340650157 0.1168641512952519 1 
46 2.6594903859015706 19.45463285618757 0.3195192514904561 0.6524115120830927 0.023795494577649623 1 
47 7.216055018771813 11.071940998791607 0.2618961323417783 0.7144692964108814 0.04833317489877398 1 
48 17.35856585882879 18.13590184998539 0.3456286058475191 0.18902096330478613 0.10847472784491058 1 
49 9.408717444301649 14.732751022803338 0.3491953356441449 0.5351618187420831 0.0012378858586501451 1 
50 15.728231991482184 7.09255250433436 0.2828532659513138 0.029438338406149733 0.330968279195783 1 
51 6.9155294760738455 19.76085864116234 0.28787148833236514 0.6574082145190405 0.02542371108332042 1 
52 7.538916809537752 23.906656461345527 0.2753637338441067 0.566985665616826 0.004507396016983134 1 
53 0.9172510618389716 9.541658681208403 0.3382565546614806 0.9479213617306499 0.2778143710647327 1 
54 1.9304914586692477 6.50392610726844 0.3308770041909566 0.9822091553933732 0.3678094918127264 1 
55 3.6846069137552537 10.691023534064982 0.343367268337752 0.934004274116557 0.25172537373190856 1 
56 13.665645215238994 14.763629430211784 0.2908581537137307 0.3209708413980717 0.033150387843916496 1 
57 4.844139473717424 16.081642204160595 0.3073514443990166 0.8576857903487458 0.1506278840797493 1 
58 2.916591769871358 10.124054512845273 0.2671010934990024 0.8323448144662281 0.12644019983755156 1 
59 0.5768338711664254 17.442273394615736 0.28378971841529016 0.8689725178578116 0.1625695907810517 1 
60 17.787286519925207 19.54917354150275 0.3273968780148352 0.3434931059147671 0.025125709156840426 1 
61 1.6456796757616188 15.3857158033072 0.3416923744237594 0.9897964010411257 0.39950380341942887 1 
62 7.952879930990353 19.95715070977141 0.2729470563169935 0.5649762867956727 0.0042398945515618736 1 
63 18.014777999004338 23.038590041031348 0.3414141855188825 0.5931054093473516 0.00874509391736139 1 
64 9.310716936532282 9.685900859334476 0.3317168050894295 0.5969166093215901 0.009482751743013329 1 
65 11.58168685912755 17.192044224452193 0.34947273674002954 0.4483023399025642 0.0026798295459453114 1 
66 12.585873686853976 14.309145456869157 0.26389562859530097 0.36049462539829746 0.019856010703832028 1 
67 17.90103335275844 15.951798467330534 0.32940115138908593 0.20507024586129874 0.09624705558511992 1 
68 6.313238063337156 20.590617446606522 0.28345239461821736 0.5137294169527404 1.885324343409711E-4 1 
69 19.42892078677486 22.929459252472576 0.2833611858472152 0.268694062658003 0.05671954323437611 1 
70 9.642809550674917 21.523612164361687 0.290409037460875 0.5406242871915025 0.0016530653348188484 1 
71 11.890274326746454 19.946407547868645 0.26841595177469896 0.4307260274172819 0.004822136275652145 1 
72 7.867169570824506 22.752734498940704 0.255448647160324 0.5629543115018354 0.00397907840159617 1 
73 2.6392519892369837 12.343614876570253 0.3433047324575018 0.8563131175264901 0.1492280480446681 1 
74 8.946387776092942 22.198253265743578 0.32691641659273185 0.35791365721054097 0.020613442832700668 1 
75 3.876155146874902 16.205034376750994 0.3015290834210687 0.8676454251419121 0.16112415050313383 1 
76 9.017329523751492 19.854790004258767 0.3418262200991676 0.5462008244888694 0.0021390918975977002 1 
77 11.236297000354446 8.587255021780805 0.3388663863091297 0.32613149999947555 0.031203941241431055 1 
78 16.861297684572193 10.130703312225867 0.32037422116560416 0.09753016413260557 0.20332167046298683 1 
79 17.246293933131774 5.2881711058616085 0.27645287634160465 3.849366509902086E-4 0.48038397403231436 1 
80 7.527918836830483 5.70871375535091 0.3374687971376018 0.9855341152336687 0.38059889889846715 1 
81 2.347080548438011 16.70269350423723 0.2917644544711819 0.6628030329075465 0.02724723958912273 1 
82 19.304964211148953 23.9767556247659 0.2762611193732058 0.2747251310117904 0.05362433601018862 1 
83 13.241272137773397 20.54439250336272 0.2906742307691982 0.3946134180771313 0.01123250072185189 1 
84 7.130124779569989 16.26093910957617 0.3355128444739142 0.5165390401000145 2.7361471244075064E-4 1 
85 17.144234267295513 20.307308799234224 0.31484703023805627 0.1993753508600089 0.10046924983243499 1 
86 18.43881650941358 6.2807575991843 0.3443395065706016 0.005072876858047248 0.42895675416740614 1 
87 5.731847393080136 13.376904217305604 0.31467201533784467 0.731139314870019 0.05663263863764373 1 
88 6.907197201915656 18.09909696838548 0.32045514366530203 0.5564983443907576 0.0032023177579193485 1 
89 15.402998972380528 14.38610821770966 0.31242659753120894 0.24663954063313448 0.06894492506245692 1 
90 12.056796945609674 18.915667747090005 0.32911349607905677 0.44603502565166875 0.00292074923249519 1 