10
Time=1 Lattice="20.0 0.00000000 0.00000000 0.00000000 25.0 0.00000000 0.00000000 0.00000000 0.000000000000000001" Properties=id:I:1:pos:R:2:radius:R:1:color:R:3
1 5.518907220948743 20.964113227277377 0.31246590682730824 0.6378993170423748 0.019392282251682325 1 
2 5.64264812780378 12.42801820923748 0.3191269425591746 0.7572471453906898 0.0712530977507344 1 
3 12.83258211320317 15.886145055343295 0.3071898011705358 0.3699661716076342 0.017204801728906205 1 
4 19.871319316694677 17.52189131247954 0.28661876555165744 8.477532590889236E-5 0.4907930385548201 1 
5 17.261486111381743 24.066834645745416 0.3093487243623185 0.3199239028696672 0.03355321928187033 1 
6 3.9651478558042488 10.53968661047298 0.3071606054846099 0.8710803890796035 0.164889055922475 1 
7 9.925569825818485 23.104992254146744 0.3152809348465664 0.5048015497350411 2.305541141006673E-5 1 
8 3.2318482098047334 14.99697479588935 0.29643773730138245 0.783115285561699 0.08787655358944002 1 
9 7.327720777028619 13.883567291233367 0.34972094222107514 0.64892241927474 0.022692852518047313 1 
10 13.449916159438406 13.726456372722877 0.3121512184927209 0.31161855678072803 0.03684513189363514 1 
10
Time=201 Lattice="20.0 0.00000000 0.00000000 0.00000000 25.0 0.00000000 0.00000000 0.00000000 0.000000000000000001" Properties=id:I:1:pos:R:2:radius:R:1:color:R:3
1 5.5681166525475465 20.792608152953548 0.31246590682730824 0.6378993170085387 0.019392282241973813 1 
2 5.734446884192481 12.275019689294176 0.3191269425591746 0.7572471446223272 0.07125309728971868 1 
3 12.786179484801975 15.713859378205433 0.3071898011705358 0.36996617156335726 0.017204801740831555 1 
4 18.5125128954616 17.407731847482058 0.28661876555165744 0.00868889948348811 0.4071915816897305 1 
5 17.19722587736149 23.90038290799423 0.3093487243623185 0.31992390290666706 0.0335532192675862 1 
6 4.0975680549697255 10.420102123479458 0.3071606054846099 0.8710803890563588 0.1648890558967352 1 
7 9.927283260939124 22.92657526275541 0.3152809348465664 0.5048015497271047 2.3055411333849918E-5 1 
8 3.332878023296669 14.84990836375024 0.29643773730138245 0.7831152855378034 0.08787655357302465 1 
9 7.380863807418208 13.713240027555052 0.34972094222107514 0.6489224200844061 0.022692852770667515 1 
10 13.382692158816512 13.561179354940638 0.3121512184927209 0.3116185568028942 0.03684513188461941 1 
10
Time=401 Lattice="20.0 0.00000000 0.00000000 0.00000000 25.0 0.00000000 0.00000000 0.00000000 0.000000000000000001" Properties=id:I:1:pos:R:2:radius:R:1:color:R:3
1 5.6920888258294005 20.36053941933717 0.31246590682730824 0.6378993170089136 0.019392282242081393 1 
2 5.965713348302251 11.889574084885583 0.3191269425591746 0.7572471402541889 0.07125309466884588 1 
3 12.66927842531216 15.279824090336598 0.3071898011705358 0.3699661714049102 0.017204801783506973 1 
4 17.361688257461065 17.06171591001112 0.28661876555165744 0.03943991103993855 0.30536083524351976 1 
5 17.035336568576973 23.48104492734713 0.3093487243623185 0.3199239029083698 0.033553219266928835 1 
6 4.4311711741680595 10.118835714505702 0.3071606054846099 0.8710803889749374 0.1648890558065746 1 
7 9.931599878075563 22.477093497685082 0.3152809348465664 0.504801549728113 2.3055411343508858E-5 1 
8 3.587400076041465 14.479407331387332 0.29643773730138245 0.7831152855367616 0.08787655357230895 1 
9 7.5147458062029875 13.284138526487013 0.34972094222107514 0.6489224246983303 0.022692854210236924 1 
10 13.21333630199299 13.144800818700002 0.3121512184927209 0.3116185569852624 0.0368451318104438 1 
10
Time=601 Lattice="20.0 0.00000000 0.00000000 0.00000000 25.0 0.00000000 0.00000000 0.00000000 0.000000000000000001" Properties=id:I:1:pos:R:2:radius:R:1:color:R:3
1 5.866155894824314 19.753879585332598 0.31246590682730824 0.6378993170106666 0.01939228224258438 1 
2 6.290430362909757 11.348376925215893 0.3191269425591746 0.7572471169427473 0.07125308068203628 1 
3 12.50513977819552 14.670403054083923 0.3071898011705358 0.3699661710796773 0.01720480187110368 1 
4 16.41717049835486 16.549228440538272 0.28661876555165744 0.08470272429700643 0.2215611866250114 1 
5 16.808030740699458 22.89226011155154 0.3093487243623185 0.31992390290780504 0.03355321926714688 1 
6 4.899577233252926 9.695833040127829 0.3071606054846099 0.8710803882980822 0.16488905505706836 1 
7 9.93766076152271 21.8459843435847 0.3152809348465664 0.5048015497278846 2.3055411341343923E-5 1 
8 3.94476985139375 13.95919358458132 0.29643773730138245 0.7831152855367335 0.08787655357228963 1 
9 7.70272709352715 12.681644941754882 0.34972094222107514 0.6489224494775014 0.02269286194147374 1 
10 12.975546830205289 12.560171304131954 0.3121512184927209 0.3116185573647977 0.03684513165607339 1 
10
Time=801 Lattice="20.0 0.00000000 0.00000000 0.00000000 25.0 0.00000000 0.00000000 0.00000000 0.000000000000000001" Properties=id:I:1:pos:R:2:radius:R:1:color:R:3
1 6.073789129532079 19.03023470277103 0.31246590682730824 0.6378993170109047 0.019392282242652714 1 
2 6.677763983356193 10.702818100958273 0.3191269425591746 0.7572469567987135 0.07125298459604318 1 
3 12.30934950907075 13.943464515550717 0.3071898011705358 0.3699661704775937 0.01720480203326613 1 
4 15.622286935031788 15.91843849674158 0.28661876555165744 0.13235957410304644 0.16111872691707113 1 
5 16.536892468637827 22.189937170421977 0.3093487243623185 0.31992390290816264 0.03355321926700883 1 
6 5.458308215473944 9.191260779481707 0.3071606054846099 0.8710803797626461 0.16488904560547357 1 
7 9.944890393425004 21.093175464366954 0.3152809348465664 0.50480154972715 2.3055411334294007E-5 1 
8 4.37105290924842 13.338664591865122 0.29643773730138245 0.7831152855371856 0.08787655357260021 1 
9 7.926957787118383 11.962969800844082 0.34972094222107514 0.6489226230531853 0.02269291609807539 1 
10 12.691903304442079 11.862804948591007 0.3121512184927209 0.31161855808165506 0.03684513136450218 1 
10
Time=1001 Lattice="20.0 0.00000000 0.00000000 0.00000000 25.0 0.00000000 0.00000000 0.00000000 0.000000000000000001" Properties=id:I:1:pos:R:2:radius:R:1:color:R:3
1 6.303913427742804 18.22820379963929 0.31246590682730824 0.6378993170110449 0.019392282242692904 1 
2 7.107053234842239 9.987330822429332 0.3191269425591746 0.757245633636363 0.07125219070527472 1 
3 12.092351019279027 13.13778318781314 0.3071898011705358 0.36996616944516747 0.017204802311335032 1 
4 14.936632653535252 15.203491128965998 0.28661876555165744 0.17449386298279473 0.12046639837277068 1 
5 16.236384196614527 21.41153782518879 0.3093487243623185 0.3199239029079022 0.03355321926710936 1 
6 6.077561484177822 8.632032591364341 0.3071606054846099 0.8710802290861104 0.16488887875601638 1 
7 9.952903147114608 20.258821487942207 0.3152809348465664 0.5048015497262641 2.30554113258008E-5 1 
8 4.843511423252079 12.650919206746007 0.29643773730138245 0.7831152855377356 0.08787655357297802 1 
9 8.175478255431674 11.16644787156978 0.34972094222107514 0.6489241366732681 0.022693388359094957 1 
10 12.377535196028813 11.089899088021001 0.3121512184927209 0.31161855933556665 0.03684513085449209 1 
10
Time=1201 Lattice="20.0 0.00000000 0.00000000 0.00000000 25.0 0.00000000 0.00000000 0.00000000 0.000000000000000001" Properties=id:I:1:pos:R:2:radius:R:1:color:R:3
1 6.549107899347903 17.373650216931082 0.31246590682730824 0.6378993170112495 0.01939228224275158 1 
2 7.564448575903511 9.22498072638852 0.3191269425591746 0.757234471291283 0.07124549357529297 1 
3 11.8611419267828 12.279340132370043 0.3071898011705358 0.36996616782300906 0.017204802748239656 1 
4 14.331270941779827 14.428534563225183 0.28661876555165744 0.20859013214601418 0.09369926296236858 1 
5 15.916196508726026 20.58216336262318 0.3093487243623185 0.31992390290858624 0.03355321926684529 1 
6 6.737366240912251 8.03617995373441 0.3071606054846099 0.8710769284631587 0.1648852238973223 1 
7 9.961440632822383 19.369828087540867 0.3152809348465664 0.5048015497266178 2.305541132918698E-5 1 
8 5.346909876163977 11.918135369426684 0.29643773730138245 0.7831152855378072 0.08787655357302726 1 
9 8.440282053376775 10.317773920746268 0.34972094222107514 0.6489390603135765 0.02269804493077049 1 
10 12.04258003154353 10.266377855005514 0.3121512184927209 0.31161856136549715 0.03684513002884765 1 
10
Time=1401 Lattice="20.0 0.00000000 0.00000000 0.00000000 25.0 0.00000000 0.00000000 0.00000000 0.000000000000000001" Properties=id:I:1:pos:R:2:radius:R:1:color:R:3
1 6.804400164955389 16.483903728016845 0.31246590682730824 0.6378993170118126 0.019392282242913172 1 
2 8.04063346306873 8.43117819169146 0.3191269425591746 0.7571730745850055 0.07120866414012605 1 
3 11.620410997184313 11.38554400529876 0.3071898011705358 0.3699661655503358 0.017204803360351018 1 
4 13.785400607686853 13.61062425398981 0.28661876555165744 0.23508234106167986 0.07594972705746328 1 
5 15.582822596478872 19.718632940428737 0.3093487243623185 0.31992390290964196 0.03355321926643773 1 
6 7.424306131516211 7.415730937170802 0.3071606054846099 0.8709959108973724 0.16479553389396945 1 
7 9.970329716064802 18.44422345292917 0.3152809348465664 0.5048015497261117 2.3055411324302E-5 1 
8 5.871039685069372 11.155173444531103 0.29643773730138245 0.7831152855376007 0.08787655357288537 1 
9 8.716076132052027 9.43426412016102 0.34972094222107514 0.6490894962763074 0.02274501354089875 1 
10 11.693830476505873 9.408941700982716 0.3121512184927209 0.3116185643229077 0.03684512882596436 1 
10
Time=1601 Lattice="20.0 0.00000000 0.00000000 0.00000000 25.0 0.00000000 0.00000000 0.00000000 0.000000000000000001" Properties=id:I:1:pos:R:2:radius:R:1:color:R:3
1 7.066458473729095 15.570576175504485 0.31246590682730824 0.6378993170111716 0.019392282242729264 1 
2 8.52951334771028 7.6166143813724325 0.3191269425591746 0.7579423833659698 0.07167100627732065 1 
3 11.373299946599177 10.468059510214067 0.3071898011705358 0.3699661628807922 0.017204804079353597 1 
4 13.28402230414684 12.761799095842058 0.28661876555165744 0.25536569482071103 0.06393342626446757 1 
5 15.24061323332251 18.832216262365694 0.3093487243623185 0.3199239029096971 0.03355321926641641 1 
6 8.128605677143534 6.777279343324863 0.3071606054846099 0.8690036482128727 0.16260363427329205 1 
7 9.979454387803168 17.494087401752886 0.3152809348465664 0.5048015497258347 2.3055411321637465E-5 1 
8 6.4090605725141865 10.371990643353588 0.29643773730138245 0.783115285537485 0.08787655357280588 1 
9 8.999954770298048 8.52863358586392 0.34972094222107514 0.6504660629518901 0.023177219609048227 1 
10 11.335837965965647 8.528780785038485 0.3121512184927209 0.3116185680400243 0.03684512731408185 1 
10
Time=1801 Lattice="20.0 0.00000000 0.00000000 0.00000000 25.0 0.00000000 0.00000000 0.00000000 0.000000000000000001" Properties=id:I:1:pos:R:2:radius:R:1:color:R:3
1 7.333050380645746 14.641448093273665 0.31246590682730824 0.6378993170118483 0.019392282242923442 1 
2 9.034111333256286 6.80793129043534 0.3191269425591746 0.7779562868732142 0.08437961721342935 1 
3 11.121913889419476 9.534702607152516 0.3071898011705358 0.36996616063477056 0.017204804684286756 1 
4 12.816296115883608 11.890555497053176 0.28661876555165744 0.2708933731839638 0.05557885564593407 1 
5 14.892483662025915 17.930464611625084 0.3093487243623185 0.31992390291056594 0.033553219266081014 1 
6 8.832466245432267 6.0953216524967955 0.3071606054846099 0.8399052475355098 0.1333060912725385 1 
7 9.988736915993893 16.52751403531914 0.3152809348465664 0.504801549726489 2.3055411327965736E-5 1 
8 6.956389199550123 9.57525881139408 0.29643773730138245 0.7831152855378716 0.08787655357307145 1 
9 9.294199055496168 7.620157956398419 0.34972094222107514 0.6608352923160145 0.026574178201460796 1 
10 10.9716522354725 7.633393085482318 0.3121512184927209 0.3116187225715481 0.03684506446068758 1 
10
Time=2001 Lattice="20.0 0.00000000 0.00000000 0.00000000 25.0 0.00000000 0.00000000 0.00000000 0.000000000000000001" Properties=id:I:1:pos:R:2:radius:R:1:color:R:3
1 7.602680032314288 13.701732840608283 0.31246590682730824 0.6378993170114137 0.01939228224279871 1 
2 9.551816159103744 6.034250687072863 0.3191269425591746 0.7608490240608969 0.07343489752855126 1 
3 10.867663365064603 8.590710398716611 0.3071898011705358 0.36996616047837827 0.01720480472640873 1 
4 12.374383365322966 11.002887901573544 0.28661876555165744 0.2828915354724856 0.04959583191259764 1 
5 14.540387245710171 17.01843773769537 0.3093487243623185 0.31992390290967176 0.03355321926642618 1 
6 9.517693264955838 5.267232559924395 0.3071606054846099 0.8129735097241055 0.11006720808455311 1 
7 9.998125216157788 15.549926819273416 0.3152809348465664 0.5048015497284597 2.3055411346839527E-5 1 
8 7.50995449251967 8.769448429495315 0.29643773730138245 0.783115285537998 0.08787655357315832 1 
9 9.613761963551102 6.803288436389421 0.34972094222107514 0.7094219627581388 0.045970880323157326 1 
10 10.603525672751106 6.7277971910636625 0.3121512184927209 0.31240492014281995 0.03652606760101573 1 
9
Time=2201 Lattice="20.0 0.00000000 0.00000000 0.00000000 25.0 0.00000000 0.00000000 0.00000000 0.000000000000000001" Properties=id:I:1:pos:R:2:radius:R:1:color:R:3
1 7.874345129754783 12.754923637307064 0.31246590682730824 0.6378993170109678 0.01939228224267081 1 
2 10.037482336474675 5.153999272868365 0.3191269425591746 0.7144691440484396 0.04833310255108392 1 
3 10.611493541975877 7.639592068385123 0.3071898011705358 0.36996619686208626 0.017204794926989453 1 
4 11.952632173180815 10.103018950516507 0.28661876555165744 0.29232369920769957 0.04516975244688709 1 
5 14.185632838488015 16.09952593388581 0.3093487243623185 0.3199239029102091 0.03355321926621874 1 
6 10.00758438900337 14.564959755522084 0.3152809348465664 0.5048015497288022 2.3055411350170196E-5 1 
7 8.067698673560333 7.9575549505615175 0.29643773730138245 0.7831152855370163 0.08787655357248386 1 
8 9.746285448938487 6.130057486065917 0.34972094222107514 0.35335450848265293 0.021988389453105772 1 
9 10.421921315063809 5.809193002359926 0.3121512184927209 0.5786483020690085 0.0062242972951565 1 
7
Time=2401 Lattice="20.0 0.00000000 0.00000000 0.00000000 25.0 0.00000000 0.00000000 0.00000000 0.000000000000000001" Properties=id:I:1:pos:R:2:radius:R:1:color:R:3
1 8.147374080917777 11.803361120932939 0.31246590682730824 0.6378993170071962 0.01939228224158862 1 
2 10.354039440152254 6.683701870015345 0.3071898011705358 0.36996801765576603 0.0172043045266157 1 
3 11.547013132966889 9.19390710505702 0.28661876555165744 0.29993680651629684 0.04177001558922144 1 
4 13.82909744017044 15.176000871698328 0.3093487243623185 0.31992390291095885 0.0335532192659293 1 
5 10.017091050202723 13.575047812910574 0.3152809348465664 0.5048015497308084 2.3055411369432566E-5 1 
6 8.62824292005754 7.141585485466467 0.29643773730138245 0.7831152753142178 0.0878765465497569 1 
7 9.616140658306094 5.458825152299975 0.34972094222107514 0.491437659451434 7.331905135288252E-5 1 
6
Time=2601 Lattice="20.0 0.00000000 0.00000000 0.00000000 25.0 0.00000000 0.00000000 0.00000000 0.000000000000000001" Properties=id:I:1:pos:R:2:radius:R:1:color:R:3
1 8.421316884443032 10.848613639435076 0.31246590682730824 0.6378993169603202 0.019392282228138658 1 
2 10.09584789588705 5.724757465089895 0.3071898011705358 0.37064238897156704 0.017023180194932486 1 
3 11.154749365536492 8.277591270063608 0.28661876555165744 0.3063321272670295 0.03903063543106694 1 
4 13.471368685894582 14.249384688290583 0.3093487243623185 0.3199239029105815 0.03355321926607502 1 
5 10.02662953107799 12.581822546264732 0.3152809348465664 0.5048015497720075 2.305541176506054E-5 1 
6 9.190632111055763 6.322901434687815 0.29643773730138245 0.783065043446693 0.08784204341233226 1 
5
Time=2801 Lattice="20.0 0.00000000 0.00000000 0.00000000 25.0 0.00000000 0.00000000 0.00000000 0.000000000000000001" Properties=id:I:1:pos:R:2:radius:R:1:color:R:3
1 8.695872015876116 9.8917320665185 0.31246590682730824 0.6378993163623674 0.019392282056569843 1 
2 10.774130920362488 7.355404823459308 0.28661876555165744 0.3120631570795749 0.03666454584922657 1 
3 13.11284032153299 13.320697294122667 0.3093487243623185 0.31992390291018147 0.03355321926622945 1 
4 10.036189333121436 11.586377181901241 0.3152809348465664 0.5048015502572251 2.305541642488862E-5 1 
5 9.747358861055316 5.5114615541811585 0.29643773730138245 0.7831466863965177 0.08789812669356611 1 
4
Time=3001 Lattice="20.0 0.00000000 0.00000000 0.00000000 25.0 0.00000000 0.00000000 0.00000000 0.000000000000000001" Properties=id:I:1:pos:R:2:radius:R:1:color:R:3
1 8.970837435140165 8.93342053734043 0.31246590682730824 0.63789931034068 0.019392280328785372 1 
2 10.4046211047171 6.428043835403094 0.28661876555165744 0.3178603526217212 0.03435512581698463 1 
3 12.753776177145063 12.3906220818424 0.3093487243623185 0.31992390291118733 0.033553219265841094 1 
4 10.04576342493997 10.589444242358372 0.3152809348465664 0.504801554934056 2.3055461339072103E-5 1 
4
Time=3201 Lattice="20.0 0.00000000 0.00000000 0.00000000 25.0 0.00000000 0.00000000 0.00000000 0.000000000000000001" Properties=id:I:1:pos:R:2:radius:R:1:color:R:3
1 9.24607774153842 7.974150816160284 0.31246590682730824 0.6378992639872799 0.019392267028747745 1 
2 10.049502227726324 5.495044864650274 0.28661876555165744 0.33487686924562465 0.02805259647936037 1 
3 12.394353032485034 11.459616959794985 0.3093487243623185 0.3199239029108949 0.033553219265954004 1 
4 10.055347118879856 9.591514598387665 0.3152809348465664 0.5048015885078102 2.3055783767489402E-5 1 
3
Time=3401 Lattice="20.0 0.00000000 0.00000000 0.00000000 25.0 0.00000000 0.00000000 0.00000000 0.000000000000000001" Properties=id:I:1:pos:R:2:radius:R:1:color:R:3
1 9.521502096051206 7.014238711685325 0.31246590682730824 0.6378990179806777 0.0193921964429159 1 
2 12.034689339112765 10.52798875020827 0.3093487243623185 0.3199239029105887 0.03355321926607219 1 
3 10.064937391612158 8.592917458540253 0.3152809348465664 0.5048017476038981 2.305731169116587E-5 1 
3
Time=3601 Lattice="20.0 0.00000000 0.00000000 0.00000000 25.0 0.00000000 0.00000000 0.00000000 0.000000000000000001" Properties=id:I:1:pos:R:2:radius:R:1:color:R:3
1 9.797049392899098 6.053894482695629 0.31246590682730824 0.6378982577762307 0.019391978320918712 1 
2 11.67486446568963 9.595943039813507 0.3093487243623185 0.31992390291248035 0.03355321926534194 1 
3 10.074532501724963 7.59387477811878 0.3152809348465664 0.5048021443116549 2.3061121805278972E-5 1 
3
Time=3801 Lattice="20.0 0.00000000 0.00000000 0.00000000 25.0 0.00000000 0.00000000 0.00000000 0.000000000000000001" Properties=id:I:1:pos:R:2:radius:R:1:color:R:3
1 10.072679468080997 5.093255850763228 0.31246590682730824 0.6378982807363313 0.019391984908736726 1 
2 11.314931593331385 8.663617582354764 0.3093487243623185 0.3199239029191692 0.033553219262759615 1 
3 10.084131144805726 6.5945386536360955 0.3152809348465664 0.5048022837355827 2.306246095412634E-5 1 
2
Time=4001 Lattice="20.0 0.00000000 0.00000000 0.00000000 25.0 0.00000000 0.00000000 0.00000000 0.000000000000000001" Properties=id:I:1:pos:R:2:radius:R:1:color:R:3
1 10.95492635619148 7.731104680080782 0.3093487243623185 0.31992390292871753 0.0335532192590734 1 
2 10.093730990552158 5.595005840393238 0.3152809348465664 0.5048015302989796 2.3055224755430537E-5 1 
1
Time=4201 Lattice="20.0 0.00000000 0.00000000 0.00000000 25.0 0.00000000 0.00000000 0.00000000 0.000000000000000001" Properties=id:I:1:pos:R:2:radius:R:1:color:R:3
1 10.594872631012688 6.798466180447173 0.3093487243623185 0.31992390291106554 0.03355321926588811 1 
1
Time=4401 Lattice="20.0 0.00000000 0.00000000 0.00000000 25.0 0.00000000 0.00000000 0.00000000 0.000000000000000001" Properties=id:I:1:pos:R:2:radius:R:1:color:R:3
1 10.234786416180881 5.865743523707692 0.3093487243623185 0.3199239029043804 0.03355321926846899 1 
