5
Time=1 Lattice="20.0 0.00000000 0.00000000 0.00000000 25.0 0.00000000 0.00000000 0.00000000 0.000000000000000001" Properties=id:I:1:pos:R:2:radius:R:1:color:R:3
1 1.0292101249527996 21.678807455030725 0.32036639163945463 0.738417172781031 0.06050341102222423 1 
2 6.31164431594855 19.44835033647273 0.29634027771906785 0.6260954019116457 0.01616123593004609 1 
3 7.962523746218574 23.413665931197126 0.3179098456800665 0.5570436034605454 0.0032646305081184823 1 
4 14.049983352532632 17.11241318882899 0.2929703593268406 0.33873845354321586 0.02671920212798995 1 
5 2.3386242359388953 10.354761890805484 0.29227083854564195 0.9111617378216763 0.21548985017848826 1 
5
Time=201 Lattice="20.0 0.00000000 0.00000000 0.00000000 25.0 0.00000000 0.00000000 0.00000000 0.000000000000000001" Properties=id:I:1:pos:R:2:radius:R:1:color:R:3
1 1.0802576884008634 21.58470672501348 0.32036639163945463 0.7384171728128741 0.060503411039498356 1 
2 6.33864263554193 19.34475549170319 0.29634027771906785 0.6260954018817106 0.016161235922244555 1 
3 7.974737367129545 23.307309790860455 0.3179098456800665 0.5570436034712786 0.003264630509351052 1 
4 14.015455600486153 17.011078912975208 0.2929703593268406 0.3387384535057634 0.02671920214075113 1 
5 2.4266581835354666 10.293845347946094 0.29227083854564195 0.9111617378005973 0.21548985014802569 1 
5
Time=401 Lattice="20.0 0.00000000 0.00000000 0.00000000 25.0 0.00000000 0.00000000 0.00000000 0.000000000000000001" Properties=id:I:1:pos:R:2:radius:R:1:color:R:3
1 1.2088606243793514 21.34764095065764 0.32036639163945463 0.7384171728140199 0.06050341104011997 1 
2 6.406658872393045 19.08377141548577 0.29634027771906785 0.6260954018818361 0.01616123592227725 1 
3 8.005506857424383 23.039369247122107 0.3179098456800665 0.5570436034716048 0.003264630509388522 1 
4 13.928470640069301 16.755789835307645 0.2929703593268406 0.33873845350316023 0.026719202141638143 1 
5 2.6484400544409907 10.140379722316363 0.29227083854564195 0.9111617377985501 0.21548985014506727 1 
5
Time=601 Lattice="20.0 0.00000000 0.00000000 0.00000000 25.0 0.00000000 0.00000000 0.00000000 0.000000000000000001" Properties=id:I:1:pos:R:2:radius:R:1:color:R:3
1 1.3894296628761467 21.014781217632137 0.32036639163945463 0.7384171728139307 0.060503411040071564 1 
2 6.502159230894636 18.717328430755106 0.29634027771906785 0.6260954018811682 0.016161235922103168 1 
3 8.048709737944327 22.663158813128664 0.3179098456800665 0.5570436034697647 0.003264630509177191 1 
4 13.806336642529793 16.397343094245954 0.2929703593268406 0.3387384535014034 0.026719202142236775 1 
5 2.95983993719376 9.924901434424346 0.29227083854564195 0.9111617377976333 0.21548985014374217 1 
5
Time=801 Lattice="20.0 0.00000000 0.00000000 0.00000000 25.0 0.00000000 0.00000000 0.00000000 0.000000000000000001" Properties=id:I:1:pos:R:2:radius:R:1:color:R:3
1 1.60481867222497 20.617734588019026 0.32036639163945463 0.738417172815309 0.0605034110408193 1 
2 6.616075369460394 18.28022253418855 0.29634027771906785 0.6260954018810165 0.016161235922063644 1 
3 8.100243631648326 22.214401964452385 0.3179098456800665 0.557043603470356 0.003264630509245081 1 
4 13.660650975946327 15.969775394357228 0.2929703593268406 0.3387384535011516 0.02671920214232254 1 
5 3.331288513405102 9.667871462113348 0.29227083854564195 0.911161737798046 0.21548985014433863 1 
5
Time=1001 Lattice="20.0 0.00000000 0.00000000 0.00000000 25.0 0.00000000 0.00000000 0.00000000 0.000000000000000001" Properties=id:I:1:pos:R:2:radius:R:1:color:R:3
1 1.84353885923343 20.17767942476235 0.32036639163945463 0.7384171728143152 0.06050341104028012 1 
2 6.742331031176226 17.79576883951676 0.29634027771906785 0.626095401880997 0.016161235922058592 1 
3 8.157359734180696 21.717035273546227 0.3179098456800665 0.557043603469491 0.0032646305091457717 1 
4 13.499184475514436 15.495893084462072 0.2929703593268406 0.3387384535024257 0.026719202141888443 1 
5 3.742972813570846 9.382999716602969 0.29227083854564195 0.9111617377972859 0.2154898501432403 1 
5
Time=1201 Lattice="20.0 0.00000000 0.00000000 0.00000000 25.0 0.00000000 0.00000000 0.00000000 0.000000000000000001" Properties=id:I:1:pos:R:2:radius:R:1:color:R:3
1 2.0978921394832373 19.70880632413642 0.32036639163945463 0.7384171728165021 0.060503411041466504 1 
2 6.876854810292374 17.27958967631875 0.29634027771906785 0.6260954018821657 0.016161235922363182 1 
3 8.218216204744794 21.187097479410205 0.3179098456800665 0.5570436034682223 0.003264630509000055 1 
4 13.327144001897464 14.990977595391959 0.2929703593268406 0.3387384535033453 0.026719202141575082 1 
5 4.181617125501825 9.079472546029969 0.29227083854564195 0.9111617377975877 0.21548985014367633 1 
5
Time=1401 Lattice="20.0 0.00000000 0.00000000 0.00000000 25.0 0.00000000 0.00000000 0.00000000 0.000000000000000001" Properties=id:I:1:pos:R:2:radius:R:1:color:R:3
1 2.3627203990872836 19.220623718074165 0.32036639163945463 0.7384171728167102 0.06050341104157936 1 
2 7.016918654814758 16.74215281173768 0.29634027771906785 0.6260954018818341 0.01616123592227675 1 
3 8.281578914946232 20.635335364992798 0.3179098456800665 0.5570436034688513 0.0032646305090723304 1 
4 13.148018420483755 14.465268274537822 0.2929703593268406 0.3387384535032657 0.026719202141602227 1 
5 4.638326036821966 8.763445277791833 0.29227083854564195 0.9111617377979073 0.21548985014413824 1 
5
Time=1601 Lattice="20.0 0.00000000 0.00000000 0.00000000 25.0 0.00000000 0.00000000 0.00000000 0.000000000000000001" Properties=id:I:1:pos:R:2:radius:R:1:color:R:3
1 2.634567435511118 18.719502746731308 0.32036639163945463 0.7384171728158571 0.060503411041116506 1 
2 7.160694629102686 16.19047219003721 0.29634027771906785 0.6260954018804066 0.016161235921904715 1 
3 8.346620935060303 20.068949829554434 0.3179098456800665 0.5570436034682169 0.0032646305089994443 1 
4 12.964145451155298 13.925626013140803 0.2929703593268406 0.33873845350110576 0.02671920214233814 1 
5 5.107139162115515 8.439042298939965 0.29227083854564195 0.9111617377977298 0.21548985014388172 1 
5
Time=1801 Lattice="20.0 0.00000000 0.00000000 0.00000000 25.0 0.00000000 0.00000000 0.00000000 0.000000000000000001" Properties=id:I:1:pos:R:2:radius:R:1:color:R:3
1 2.9111174146697576 18.209712402850432 0.32036639163945463 0.7384171728156834 0.06050341104102236 1 
2 7.306957921929783 15.629247515893859 0.29634027771906785 0.6260954018818736 0.01616123592228702 1 
3 8.41278817949088 19.492765847260813 0.3179098456800665 0.5570436034678815 0.0032646305089609196 1 
4 12.777091486892198 13.376647962448319 0.2929703593268406 0.33873845350104326 0.026719202142359455 1 
5 5.5840627355144115 8.10902716167312 0.29227083854564195 0.911161737797084 0.2154898501429483 1 
5
Time=2001 Lattice="20.0 0.00000000 0.00000000 0.00000000 25.0 0.00000000 0.00000000 0.00000000 0.000000000000000001" Properties=id:I:1:pos:R:2:radius:R:1:color:R:3
1 3.1908186081967043 17.694113131912033 0.32036639163945463 0.7384171728150161 0.06050341104066037 1 
2 7.454887846559481 15.061627834012715 0.29634027771906785 0.6260954018822442 0.01616123592238361 1 
3 8.479709382290801 18.91001639984028 0.3179098456800665 0.5570436034674584 0.0032646305089123473 1 
4 12.587906091841914 12.821414451072897 0.2929703593268406 0.3387384535021097 0.02671920214199608 1 
5 6.066420727754634 7.775251588603616 0.29227083854564195 0.9111617377967522 0.2154898501424689 1 
5
Time=2201 Lattice="20.0 0.00000000 0.00000000 0.00000000 25.0 0.00000000 0.00000000 0.00000000 0.000000000000000001" Properties=id:I:1:pos:R:2:radius:R:1:color:R:3
1 3.4726312779969906 17.174621580023924 0.32036639163945463 0.7384171728163402 0.060503411041378685 1 
2 7.603934500517285 14.489723166877113 0.29634027771906785 0.6260954018824579 0.016161235922439343 1 
3 8.54713577611304 18.322867751917006 0.3179098456800665 0.5570436034683135 0.0032646305090105465 1 
4 12.397292528154011 12.261989458169603 0.2929703593268406 0.3387384535034671 0.02671920214153356 1 
5 6.5524200611098395 7.438956329457369 0.29227083854564195 0.9111617377968537 0.21548985014261557 1 
5
Time=2401 Lattice="20.0 0.00000000 0.00000000 0.00000000 25.0 0.00000000 0.00000000 0.00000000 0.000000000000000001" Properties=id:I:1:pos:R:2:radius:R:1:color:R:3
1 3.75585874588167 16.652521999007117 0.32036639163945463 0.7384171728170782 0.06050341104177903 1 
2 7.753729420763807 13.914947338456177 0.29634027771906785 0.6260954018828633 0.016161235922544925 1 
3 8.614900673995246 17.73277141259719 0.3179098456800665 0.5570436034679427 0.0032646305089679695 1 
4 12.20572201776541 11.699755956306255 0.2929703593268406 0.33873845350290394 0.026719202141725462 1 
5 7.040859280954769 7.100972750589404 0.29227083854564195 0.9111617377971624 0.21548985014306177 1 
5
Time=2601 Lattice="20.0 0.00000000 0.00000000 0.00000000 25.0 0.00000000 0.00000000 0.00000000 0.000000000000000001" Properties=id:I:1:pos:R:2:radius:R:1:color:R:3
1 4.0400342015056845 16.128674903864233 0.32036639163945463 0.7384171728163132 0.06050341104136403 1 
2 7.904025718045059 13.338247683782278 0.29634027771906785 0.6260954018833849 0.016161235922680928 1 
3 8.682892387069774 17.14069996789946 0.3179098456800665 0.5570436034693624 0.0032646305091310057 1 
4 12.01351030369572 11.135640608480863 0.2929703593268406 0.3387384535040947 0.02671920214131973 1 
5 7.530933350679177 6.761857910367578 0.29227083854564195 0.9111617377971588 0.21548985014305644 1 
5
Time=2801 Lattice="20.0 0.00000000 0.00000000 0.00000000 25.0 0.00000000 0.00000000 0.00000000 0.000000000000000001" Properties=id:I:1:pos:R:2:radius:R:1:color:R:3
1 4.324844857843763 15.603656884058132 0.32036639163945463 0.7384171728162983 0.060503411041355926 1 
2 8.054657963817593 12.760258966222313 0.29634027771906785 0.6260954018827836 0.016161235922524164 1 
3 8.751036078028799 16.54730510065973 0.3179098456800665 0.5570436034678483 0.003264630508957145 1 
4 11.820868950063502 10.570264326731113 0.2929703593268406 0.33873845350317466 0.026719202141633203 1 
5 8.022102854203961 6.421985066649772 0.29227083854564195 0.9111617377970905 0.2154898501429579 1 
5
Time=3001 Lattice="20.0 0.00000000 0.00000000 0.00000000 25.0 0.00000000 0.00000000 0.00000000 0.000000000000000001" Properties=id:I:1:pos:R:2:radius:R:1:color:R:3
1 4.6100811314459005 15.077854284292169 0.32036639163945463 0.73841717281568 0.06050341104102047 1 
2 8.205515312418687 12.18140650999651 0.29634027771906785 0.6260954018849092 0.016161235923078165 1 
3 8.819281602014959 15.953023472005274 0.3179098456800665 0.5570436034676256 0.003264630508931554 1 
4 11.627939715748884 10.004043154170542 0.2929703593268406 0.33873845350269605 0.026719202141796294 1 
5 8.514006354914173 6.081604321465836 0.29227083854564195 0.9111617377973875 0.21548985014338712 1 
5
Time=3201 Lattice="20.0 0.00000000 0.00000000 0.00000000 25.0 0.00000000 0.00000000 0.00000000 0.000000000000000001" Properties=id:I:1:pos:R:2:radius:R:1:color:R:3
1 4.895602590581889 14.551525975457606 0.32036639163945463 0.738417172815167 0.06050341104074225 1 
2 8.356523491535398 11.601975304285574 0.29634027771906785 0.6260954018860817 0.016161235923383754 1 
3 8.887595359384584 15.358147667435398 0.3179098456800665 0.5570436034676428 0.0032646305089335526 1 
4 11.434817586518855 9.437255861160999 0.2929703593268406 0.33873845350208087 0.026719202142005904 1 
5 9.00640167162469 5.740883256085257 0.29227083854564195 0.9111617377976129 0.2154898501437128 1 
5
Time=3401 Lattice="20.0 0.00000000 0.00000000 0.00000000 25.0 0.00000000 0.00000000 0.00000000 0.000000000000000001" Properties=id:I:1:pos:R:2:radius:R:1:color:R:3
1 5.181315138745822 14.024845414413685 0.32036639163945463 0.7384171728154081 0.060503411040873034 1 
2 8.507632734880199 11.022156306547917 0.29634027771906785 0.6260954018850512 0.016161235923115136 1 
3 8.955954836644267 14.762873734333068 0.3179098456800665 0.5570436034679734 0.003264630508971522 1 
4 11.241566207739773 8.870089238231749 0.2929703593268406 0.3387384535009056 0.026719202142406362 1 
5 9.499126530439584 5.399934158608533 0.29227083854564195 0.9111617377975884 0.21548985014367728 1 
5
Time=3601 Lattice="20.0 0.00000000 0.00000000 0.00000000 25.0 0.00000000 0.00000000 0.00000000 0.000000000000000001" Properties=id:I:1:pos:R:2:radius:R:1:color:R:3
1 5.467155726420677 13.497928826208634 0.32036639163945463 0.738417172815122 0.06050341104071777 1 
2 8.65880969647386 10.442077468135588 0.29634027771906785 0.6260954018840703 0.016161235922859563 1 
3 9.024344948588638 14.167333034564832 0.3179098456800665 0.5570436034670181 0.0032646305088617766 1 
4 11.048228225091071 8.302668444676913 0.2929703593268406 0.3387384535004663 0.02671920214255602 1 
5 9.992072199470519 5.058832267856761 0.29227083854564195 0.9111617377964688 0.2154898501420594 1 
4
Time=3801 Lattice="20.0 0.00000000 0.00000000 0.00000000 25.0 0.00000000 0.00000000 0.00000000 0.000000000000000001" Properties=id:I:1:pos:R:2:radius:R:1:color:R:3
1 5.753082107175937 12.970854087624007 0.32036639163945463 0.7384171728148061 0.060503411040546407 1 
2 8.810032032788465 9.86182452306013 0.29634027771906785 0.6260954018829226 0.016161235922560413 1 
3 9.092755587353114 13.571613587361984 0.3179098456800665 0.5570436034675951 0.003264630508928057 1 
4 10.854832213380186 7.735077343685158 0.2929703593268406 0.3387384535009301 0.02671920214239798 1 
4
Time=4001 Lattice="20.0 0.00000000 0.00000000 0.00000000 25.0 0.00000000 0.00000000 0.00000000 0.000000000000000001" Properties=id:I:1:pos:R:2:radius:R:1:color:R:3
1 6.039065973723642 12.44367338012107 0.32036639163945463 0.7384171728144101 0.06050341104033158 1 
2 8.961284772508389 9.281454917534713 0.29634027771906785 0.6260954018823263 0.016161235922404982 1 
3 9.16117998014814 12.975774370153069 0.3179098456800665 0.5570436034685404 0.0032646305090365813 1 
4 10.661397319201834 7.167372127920823 0.2929703593268406 0.3387384534999516 0.026719202142731435 1 
4
Time=4201 Lattice="20.0 0.00000000 0.00000000 0.00000000 25.0 0.00000000 0.00000000 0.00000000 0.000000000000000001" Properties=id:I:1:pos:R:2:radius:R:1:color:R:3
1 6.325088358719367 11.91642166797284 0.32036639163945463 0.7384171728139552 0.06050341104008483 1 
2 9.112557884075143 8.701007143490278 0.29634027771906785 0.6260954018788963 0.016161235921511086 1 
3 9.229613588851961 12.379854900858808 0.3179098456800665 0.5570436034670695 0.0032646305088677163 1 
4 10.467936371766072 6.599590449364565 0.2929703593268406 0.3387384535088186 0.02671920213971013 1 
4
Time=4401 Lattice="20.0 0.00000000 0.00000000 0.00000000 25.0 0.00000000 0.00000000 0.00000000 0.000000000000000001" Properties=id:I:1:pos:R:2:radius:R:1:color:R:3
1 6.611136553063265 11.38912237904759 0.32036639163945463 0.738417172813181 0.060503411039664834 1 
2 9.263844645807504 8.120506992547291 0.29634027771906785 0.6260954018534585 0.016161235914881666 1 
3 9.298053372690784 11.783881658523045 0.3179098456800665 0.557043603468236 0.0032646305090016647 1 
4 10.274457967328495 6.0317575367459035 0.2929703593268406 0.3387384535863939 0.02671920211327783 1 
4
Time=4601 Lattice="20.0 0.00000000 0.00000000 0.00000000 25.0 0.00000000 0.00000000 0.00000000 0.000000000000000001" Properties=id:I:1:pos:R:2:radius:R:1:color:R:3
1 6.89720204099478 10.861791211225809 0.32036639163945463 0.7384171727968201 0.060503411030789434 1 
2 9.415140553701763 7.539971746752419 0.29634027771906785 0.6260954017806081 0.016161235895895742 1 
3 9.366497294197904 11.187872385476098 0.3179098456800665 0.5570436034914759 0.0032646305116704744 1 
4 10.080967865935143 5.463890294295135 0.2929703593268406 0.3387384540100332 0.026719201968930684 1 
3
Time=4801 Lattice="20.0 0.00000000 0.00000000 0.00000000 25.0 0.00000000 0.00000000 0.00000000 0.000000000000000001" Properties=id:I:1:pos:R:2:radius:R:1:color:R:3
1 7.1832791163867125 10.33443868288093 0.32036639163945463 0.7384171725091456 0.06050341087473238 1 
2 9.566442589609405 6.959412987165068 0.29634027771906785 0.6260954018517576 0.016161235914438354 1 
3 9.434943988292611 10.591838970010265 0.3179098456800665 0.5570436038392675 0.003264630551609804 1 
3
Time=5001 Lattice="20.0 0.00000000 0.00000000 0.00000000 25.0 0.00000000 0.00000000 0.00000000 0.000000000000000001" Properties=id:I:1:pos:R:2:radius:R:1:color:R:3
1 7.469363953743061 9.807071841654713 0.32036639163945463 0.7384171678457128 0.06050340834492329 1 
2 9.717748731933344 6.378838471234274 0.29634027771906785 0.6260954018807048 0.01616123592198243 1 
3 9.503392542391111 9.995789378109038 0.3179098456800665 0.557043609553834 0.0032646312078535855 1 
3
Time=5201 Lattice="20.0 0.00000000 0.00000000 0.00000000 25.0 0.00000000 0.00000000 0.00000000 0.000000000000000001" Properties=id:I:1:pos:R:2:radius:R:1:color:R:3
1 7.755453955691888 9.279695407224004 0.32036639163945463 0.7384170932379477 0.060503367871871216 1 
2 9.86905762603368 5.798253396644118 0.29634027771906785 0.6260954019108643 0.01616123592984242 1 
3 9.571842379059568 9.399728950055868 0.3179098456800665 0.5570437019437852 0.003264641817648961 1 
3
Time=5401 Lattice="20.0 0.00000000 0.00000000 0.00000000 25.0 0.00000000 0.00000000 0.00000000 0.000000000000000001" Properties=id:I:1:pos:R:2:radius:R:1:color:R:3
1 8.041546837282368 8.7523125171953 0.32036639163945463 0.7384159265464634 0.06050273496983927 1 
2 10.02036836398453 5.2176612472133215 0.29634027771906785 0.6260954019565829 0.016161235941757335 1 
3 9.640293654980926 8.803661289950393 0.3179098456800665 0.5570451656077027 0.003264809902912391 1 
2
Time=5601 Lattice="20.0 0.00000000 0.00000000 0.00000000 25.0 0.00000000 0.00000000 0.00000000 0.000000000000000001" Properties=id:I:1:pos:R:2:radius:R:1:color:R:3
1 8.327632595372162 8.224925227026562 0.32036639163945463 0.738398296612486 0.060493171643186905 1 
2 9.708754927603517 8.207588877553261 0.3179098456800665 0.5570676681299989 0.003267394613355068 1 
2
Time=5801 Lattice="20.0 0.00000000 0.00000000 0.00000000 25.0 0.00000000 0.00000000 0.00000000 0.000000000000000001" Properties=id:I:1:pos:R:2:radius:R:1:color:R:3
1 8.61357816929272 7.697541036981961 0.32036639163945463 0.7381462432213941 0.060356545778813386 1 
2 9.777357891549483 7.611507562967515 0.3179098456800665 0.5573970175300214 0.0033053429131148504 1 
2
Time=6001 Lattice="20.0 0.00000000 0.00000000 0.00000000 25.0 0.00000000 0.00000000 0.00000000 0.000000000000000001" Properties=id:I:1:pos:R:2:radius:R:1:color:R:3
1 8.897563868784154 7.1703814614672226 0.32036639163945463 0.7349248694241779 0.05862679541454602 1 
2 9.847913197288968 7.015203281897484 0.3179098456800665 0.5617124390428522 0.003823040773372588 1 
2
Time=6201 Lattice="20.0 0.00000000 0.00000000 0.00000000 25.0 0.00000000 0.00000000 0.00000000 0.000000000000000001" Properties=id:I:1:pos:R:2:radius:R:1:color:R:3
1 9.161158231118474 6.647734344262631 0.32036639163945463 0.7073998737773566 0.0450436368648785 1 
2 9.938685760913657 6.414470856506306 0.3179098456800665 0.5963009987020776 0.00936152041550753 1 
2
Time=6401 Lattice="20.0 0.00000000 0.00000000 0.00000000 25.0 0.00000000 0.00000000 0.00000000 0.000000000000000001" Properties=id:I:1:pos:R:2:radius:R:1:color:R:3
1 9.353063065347612 6.151675572028138 0.32036639163945463 0.660627738959201 0.02650371756807346 1 
2 10.098211399269292 5.788125780194943 0.3179098456800665 0.6348319382830699 0.018522743612088777 1 
2
Time=6601 Lattice="20.0 0.00000000 0.00000000 0.00000000 25.0 0.00000000 0.00000000 0.00000000 0.000000000000000001" Properties=id:I:1:pos:R:2:radius:R:1:color:R:3
1 9.52041242335189 5.684579332374943 0.32036639163945463 0.6855486194769616 0.0357029939680919 1 
2 10.229508248709516 5.149836552774553 0.3179098456800665 0.545280841083043 0.002054575851115792 1 
1
Time=6801 Lattice="20.0 0.00000000 0.00000000 0.00000000 25.0 0.00000000 0.00000000 0.00000000 0.000000000000000001" Properties=id:I:1:pos:R:2:radius:R:1:color:R:3
1 9.736599892725943 5.236494645753765 0.32036639163945463 0.7540591207900784 0.06935633855428414 1 
