100
Time=1 Lattice="20.0 0.00000000 0.00000000 0.00000000 25.0 0.00000000 0.00000000 0.00000000 0.000000000000000001" Properties=id:I:1:pos:R:2:radius:R:1:color:R:3
1 16.93682156681982 17.42879165029863 0.3266471889405712 0.2544310242922726 0.06445909701859504 1 
2 9.09677110390296 16.92466288041733 0.3498144233031575 0.7578520535717312 0.07161662209086472 1 
3 9.050365360863108 9.75768405531976 0.3170022439672193 0.6111148084728149 0.012502821199907144 1 
4 13.906323303920042 19.893389455706615 0.3266079079836716 0.37012614599826155 0.017161743389429496 1 
5 7.279901020129406 5.743771130453322 0.25059964675724294 0.9829699285353628 0.3706166620829927 1 
6 8.534271446567868 8.456210716028956 0.30500972103471985 0.7061624302831988 0.04448155653176328 1 
7 1.330692188283853 6.378562334158196 0.2588701841167518 0.9939334947344443 0.422348839162452 1 
8 16.26829384512231 24.669933859799162 0.27874231339057876 0.34599918254212825 0.024307086218107232 1 
9 3.041267696473168 19.23391146754331 0.30303899106153165 0.722165826365263 0.052068816004690543 1 
10 19.43378501925684 19.469140825885525 0.33396348807113474 0.2249051551463802 0.08248014857379193 1 
11 10.517634325626409 14.271315417655932 0.27724750617569915 0.6351308601089276 0.018606553174826235 1 
12 15.388233438316574 21.214297975869293 0.25730493659355486 0.5222275121903099 4.943066372219973E-4 1 
13 4.242284792444386 23.651171076427715 0.28028474531968445 0.649795379187925 0.02296609724890014 1 
14 11.020233595626879 23.337219457159954 0.3472258265158168 0.45770588249508837 0.00179200365261023 1 
15 0.8909162092040447 10.218216975690165 0.2563201384846625 0.935012281596164 0.2534958116775706 1 
16 6.252224283839646 16.286829843032503 0.32382710320017394 0.856709795875751 0.1496314490050797 1 
17 18.557354189113102 23.087544773830803 0.3177440656558571 0.08968474332336501 0.21427042480977376 1 
18 15.483482934099674 8.689281238430638 0.31509411754889727 0.5017182852895153 0.9999970474869465 1 
19 1.948371794412182 20.339127351497773 0.28395019754085876 0.734621329778324 0.058465367594963236 1 
20 19.21898913006262 21.425482298749984 0.3374435044096231 0.4510398070893221 0.0024028742947270754 1 
21 4.795763219913246 9.190012909699481 0.325295756329716 0.892156713123577 0.1898176143748448 1 
22 13.986883381362755 24.3975626304305 0.3347610072787446 0.39692677173932595 0.010739425647311118 1 
23 6.305443601871042 6.14935385105302 0.3197744901004439 0.9789758334011858 0.3565351924071984 1 
24 14.433872740004755 5.530228937397751 0.3062092113524462 0.003389066382019801 0.4418830436870779 1 
25 5.656734411945122 18.169127261922153 0.265917780827855 0.6510142454962613 0.023350550553979 1 
26 12.036136574541544 9.4436557318682 0.34139940031290283 0.9628348545277393 0.3108336778538887 1 
27 0.3500821321539491 14.837489883712095 0.25544945809338715 0.8519540229034669 0.14485444425972904 1 
28 4.210594625145967 16.772649593349286 0.30856374598894803 0.7234389274976101 0.05270250874980559 1 
29 8.718843710038104 17.475286904936716 0.27616974097952135 0.22494873983804542 0.9175485651793343 1 
30 15.74710140436691 6.9083311687767415 0.262699222269818 0.007199288881921062 0.4154573532380509 1 
31 7.245191470142576 11.29899815511246 0.2739058842174951 0.7063774498602973 0.04457893308591826 1 
32 7.498721743694432 15.643227758380746 0.2759120306809796 0.618893615607928 0.014341366629116448 1 
33 8.800922926436982 6.716552750005957 0.26317689878263584 0.8016756720928365 0.10126225552710039 1 
34 11.311203309012111 9.22826812882588 0.2500621607592144 0.10198574239924174 0.19737043973445478 1 
35 18.950957538992192 17.58989911357459 0.3020744783319194 0.20814829446376726 0.09401652499690077 1 
36 15.392751408717315 8.047978690001917 0.2750459813867961 0.37172301839276667 0.016735045767089007 1 
37 7.7658174039307 20.69954239356824 0.27692254851957304 0.9887988613693294 0.6052410239595145 1 
38 2.0231173942681955 14.514163868565987 0.30647695758915505 2.432138926283245E-4 0.48440658024579797 1 
39 9.67597457901962 14.499964063409486 0.3172660258582275 0.3271181816670882 0.030839178010454382 1 
40 15.483024128425303 17.521422772603348 0.2800093992248275 0.29615871155809115 0.04343814315435579 1 
41 11.927788160460967 22.5871578266366 0.3489405913687944 0.44341565449738174 0.0032121057794983754 1 
42 7.2081395897485425 20.333388193061047 0.2710392148703869 0.17444394219185477 0.12050921852511409 1 
43 6.158810213234723 24.28598769567128 0.31123750463047417 0.5781015945129611 0.006137528319337671 1 
44 18.29928307401139 11.234063058629314 0.27701273386591796 0.09851047112094269 0.20199637888026828 1 
45 7.2701032724927686 21.687091577244484 0.308910462152561 0.5811729154000118 0.006633039406303054 1 
46 11.865064631238395 7.925073895359734 0.3131461538881694 0.21555846481633578 0.08879079161288195 1 
47 14.630718510734473 12.453176405591496 0.3379481471298183 0.1515339004922916 0.14143148842392217 1 
48 10.554655833051264 16.540964546548178 0.3031331936512713 0.4718396022012499 7.936378652450005E-4 1 
49 2.681607089950192 14.709927444716111 0.33919159103230967 0.992784611957897 0.5846364355198448 1 
50 16.425649489305254 11.13613537534266 0.3355880896798479 0.1357519433113697 0.1574750327369458 1 
51 4.815514082511451 6.626448931506784 0.27110719544172696 0.9863431349901375 0.38393814128679105 1 
52 5.560678204876219 16.54127472606602 0.27978957341591726 0.0011955893294631204 0.4654433813051916 1 
53 16.579467710719047 6.467933814719086 0.3039947989066891 0.5464019042366312 0.9978422072135051 1 
54 18.322714322928736 21.444243915723707 0.28507485421616996 0.15024899174958928 0.1426846879465965 1 
55 19.08390688205672 23.413238581460817 0.2758376329609103 0.9411383185206976 0.7353656388106207 1 
56 19.653589332171407 12.099385258566436 0.26536009599765553 0.09575333562274496 0.20574732908627164 1 
57 15.800173668721504 20.123589665685998 0.29467317960367345 0.32007734838190827 0.03349400921883672 1 
58 10.456501332497332 20.466831721444194 0.321176777027071 0.3994095379878521 0.010222949749396026 1 
59 7.89780667581159 9.525901553093265 0.2551279149547353 0.7157484984776731 0.04894281359828717 1 
60 3.3474389012969357 13.01472357148416 0.31781544133322076 0.8216579411656777 0.11719957042205742 1 
61 0.5110210021447686 24.441138548338383 0.265525148960278 0.7211684512600556 0.051575517877058386 1 
62 15.152633694435524 12.945075118011664 0.30022623026742384 0.8844284041061654 0.8197104973509421 1 
63 12.553810271509677 21.70405016759496 0.2662163779480313 0.4338189567642211 0.00439928418511748 1 
64 2.2116549683805773 8.919922396766623 0.3278681064676427 0.9477585540543899 0.277486455982738 1 
65 11.722493310027495 6.845191910026768 0.2955375538000144 0.15506820246433967 0.13803031197513482 1 
66 3.6149082573148346 21.537567258954468 0.28941718644668674 0.6825277034118481 0.03450710264581219 1 
67 1.5651567950578484 13.955817259322146 0.31465057657023154 0.258707406036175 0.9379245187223577 1 
68 6.358591941584055 22.636214129789174 0.2558930354887776 0.7593301336980532 0.07250978753174964 1 
69 12.792515489682591 5.86074529320759 0.30065680615169255 0.03445439578481402 0.3176067698736671 1 
70 7.408824813871222 18.52194393490697 0.33815660362931704 0.5694762908618132 0.004850482169188874 1 
71 19.12101571104423 6.720147260659371 0.32448656658232905 0.008479881282137836 0.4083050007057164 1 
72 5.829786845142634 19.163513777980846 0.28175348714846493 0.6529550866012723 0.023969810324179885 1 
73 2.803467221556469 17.67113828371818 0.33846125421800677 0.7494651809420994 0.06667896024134062 1 
74 13.600065801754603 13.59718623277706 0.2986628923717455 0.30228260246477606 0.04075297419373719 1 
75 15.982356783965558 6.018668475830209 0.2519407279052828 0.05171501936118744 0.27854893061071156 1 
76 8.185021134525332 17.899676332256657 0.25566993314069325 0.003396490397997165 0.5581803596669312 1 
77 7.202930160307431 24.432805471426267 0.2925180788718221 0.5957303041764006 0.009249850878989718 1 
78 16.27101454035244 18.595659148422726 0.30587308943558955 0.28731786682557825 0.04748888386208949 1 
79 17.28363046982203 15.502028713186217 0.2567794249584787 0.21275457012045795 0.0907445015478508 1 
80 4.876737996333028 5.618722666091384 0.3203987056592254 0.9916272361680236 0.4088810631219265 1 
81 5.54733011667439 22.768372873823 0.2972432406577558 0.40163223782410185 0.009771702811326943 1 
82 17.782848496009727 8.749969817755474 0.297911817397477 0.048569938788113 0.28503279358415634 1 
83 16.122761334952717 15.019657087614625 0.27082941741980493 0.10544903322863025 0.8071311358683413 1 
84 5.374227393005778 21.545828916133633 0.2602410406046812 0.6367609570283853 0.01906711421168117 1 
85 14.608453960166615 21.404530999526532 0.265743063620512 0.202675061176052 0.09800761107536432 1 
86 9.917171744911583 11.31586799288229 0.28269146784940863 0.5134801002696604 1.817461349376548E-4 1 
87 5.236887128833528 10.541953928684487 0.30621462953083584 0.8299781387244913 0.12434799619339132 1 
88 18.73344291610676 14.109113055525404 0.3207820419901434 0.1519273152216406 0.1410495770845438 1 
89 10.617324557369615 24.58633261156201 0.31290128937757916 0.48109453186599377 3.57544563480805E-4 1 
90 13.329485265794903 6.69469809368498 0.3336544743529099 0.0347983026811482 0.31673139709252063 1 
91 10.941182577071297 12.109088385562659 0.32727252767120596 0.4283871085252755 0.005154980044631219 1 
92 1.8194769471928507 13.385685485772797 0.334763008641576 0.7078527571320529 0.0452503640984373 1 
93 6.46926517502778 17.149810544036768 0.3238855339163298 0.8944575312204999 0.19274887133904878 1 
94 18.86239854991644 9.342606837122183 0.32823495324856533 0.049969394648409104 0.2821182562790525 1 
95 0.49803743545830004 16.611246350052106 0.26957597540793143 0.8186323803189643 0.11467752957779526 1 
96 4.653839650720018 12.958339209518904 0.28411947448145325 0.7829649692606236 0.08777333156219225 1 
97 11.38670997946693 20.7136393193872 0.3042822675527272 0.544566906200816 0.0019901699045613563 1 
98 18.173228008091588 24.76587450297234 0.32630838732001105 0.4972486063592689 7.57022427455567E-6 1 
99 16.551227377581203 14.48888919660567 0.32708418159981334 0.7283892766844615 0.05520978169978996 1 
100 5.132264378306589 14.562627311852665 0.32597122895182373 0.7304926364101352 0.05629610711567423 1 
100
Time=201 Lattice="20.0 0.00000000 0.00000000 0.00000000 25.0 0.00000000 0.00000000 0.00000000 0.000000000000000001" Properties=id:I:1:pos:R:2:radius:R:1:color:R:3
1 16.91928228373366 17.397683387879386 0.3266471889405712 0.25443846203599496 0.06445490351428301 1 
2 9.185559022538692 16.763321653575932 0.3498144233031575 0.7233731730968623 0.05266966843210913 1 
3 9.05829593938519 9.722908593241495 0.3170022439672193 0.6112312431060534 0.012529374672604454 1 
4 13.897054018851035 19.85892858959033 0.3266079079836716 0.3701261488949673 0.017161742610273478 1 
5 7.315359337512838 5.73427335077736 0.25059964675724294 0.9829781596166006 0.3706473914705951 1 
6 8.549027873735334 8.423605758090352 0.30500972103471985 0.7061575965524238 0.044479368871476854 1 
7 1.3659442650156264 6.373020364009545 0.2588701841167518 0.9939334947207743 0.42234883907549864 1 
8 16.257302791488115 24.635983605441474 0.27874231339057876 0.3459992443723654 0.02430706620119155 1 
9 3.0571234544511965 19.2019430671863 0.30303899106153165 0.722165947658456 0.052068876163957334 1 
10 19.414151478014087 19.439342400167142 0.33396348807113474 0.2249051585172197 0.08248014635281836 1 
11 10.527961120497041 14.232255178805076 0.27724750617569915 0.6206030121630213 0.01476303370702875 1 
12 15.389162531397552 21.177659756339402 0.25730493659355486 0.5034187208932396 1.1687789150283123E-5 1 
13 4.2529752528683265 23.617126432993608 0.28028474531968445 0.6497943795081392 0.02296578333648691 1 
14 11.01725732969278 23.302173440110966 0.3472258265158168 0.4576735792942605 0.0017947470065768911 1 
15 0.9219630246072741 10.200623978087119 0.2563201384846625 0.9350122816413364 0.25349581175728775 1 
16 6.318478590892619 16.212148915975956 0.32382710320017394 0.808560216984172 0.10656564398278501 1 
17 18.40285661003266 22.969254795523252 0.3177440656558571 0.11857824084523083 0.17670842627237987 1 
18 15.471503159132475 8.794593817965609 0.31509411754889727 0.3590313750461218 0.9797164232946511 1 
19 1.9651156147776476 20.30761710233184 0.28395019754085876 0.7346213301579544 0.05846536779669009 1 
20 19.21505653248441 21.394161625063195 0.3374435044096231 0.42512934465274854 0.005637395257415245 1 
21 4.823757589756788 9.167869991932362 0.325295756329716 0.892151943253912 0.18981158402967307 1 
22 13.97952703601025 24.3626440603372 0.3347610072787446 0.3969267715181626 0.010739425693903959 1 
23 6.338651498159166 6.1394064026562285 0.3197744901004439 0.9789687118646122 0.35651141838196965 1 
24 14.398431023661468 5.526081240509883 0.3062092113524462 0.0033892475734556005 0.4418814954223578 1 
25 5.667866606254265 18.134000223586863 0.265917780827855 0.6510915333555325 0.02337504414028635 1 
26 12.065079511930842 9.424753051913733 0.34139940031290283 0.8532666254404994 0.14616007665911707 1 
27 0.3751892484103602 14.812152245206539 0.25544945809338715 0.8519073374793535 0.14480818445776034 1 
28 4.226529830655963 16.740739361802525 0.30856374598894803 0.7233220167617181 0.05264412731084117 1 
29 8.697648575379025 17.519006193716333 0.27616974097952135 0.9982175977037615 0.5421808645986875 1 
30 15.70911181327096 6.901479513188186 0.262699222269818 0.008716614623739016 0.40704498263546923 1 
31 7.259920639261596 11.266494730441968 0.2739058842174951 0.7063774507779045 0.04457893350173886 1 
32 7.5072142313638865 15.608551720472384 0.2759120306809796 0.6189914933597573 0.014365338440495146 1 
33 8.822453630190815 6.688094693727162 0.26317689878263584 0.8016757190748297 0.10126229107258439 1 
34 11.255517547724748 9.181177221617638 0.2500621607592144 0.13501759564499494 0.158257634304379 1 
35 18.93012804181301 17.56092401588807 0.3020744783319194 0.20814829598538886 0.09401652390304377 1 
36 15.343696596005985 7.905881359391292 0.2750459813867961 0.2996771622208214 0.041883463882718075 1 
37 7.832163166547932 20.703554913517056 0.27692254851957304 0.9966328935659642 0.44207100010963674 1 
38 1.9958811244264125 14.551076125345158 0.30647695758915505 0.683600848759396 0.9650706702586493 1 
39 9.664866539678698 14.467769504384508 0.3172660258582275 0.3464356745996364 0.02416599746935777 1 
40 15.46845857828265 17.488799132267687 0.2800093992248275 0.2961571530767568 0.04343883897310402 1 
41 11.923794207562642 22.552068369596423 0.3489405913687944 0.4434940236580891 0.0032031857613744608 1 
42 7.153971642695732 20.258376622995144 0.2710392148703869 0.24307553104670915 0.07105965769926759 1 
43 6.164379404079901 24.250805218862943 0.31123750463047417 0.5782486998780618 0.006160814670005121 1 
44 18.27062818476496 11.212794108545234 0.27701273386591796 0.09851047084080378 0.20199637925768932 1 
45 7.275778671338891 21.652517526560416 0.308910462152561 0.5808330942869633 0.006577249340897429 1 
46 11.845316723493399 7.896524584127827 0.3131461538881694 0.21556324337455463 0.08878748623078458 1 
47 14.535305270312747 12.35109168067088 0.3379481471298183 0.16593489518992616 0.1279778155160174 1 
48 10.552651206822937 16.505333085636146 0.3031331936512713 0.47200039806990157 7.845932948823409E-4 1 
49 2.8579518471895167 14.725900333778458 0.33919159103230967 0.9999841488877819 0.5039813139740974 1 
50 16.399653039054716 11.111689306357823 0.3355880896798479 0.13575193774332978 0.1574750386581134 1 
51 4.849470451800573 6.618350211240944 0.27110719544172696 0.9863740652379509 0.38406782731308153 1 
52 5.513808142453604 16.529629225438047 0.27978957341591726 0.05252397210891624 0.27691883884375623 1 
53 16.57580581658973 6.479305754735824 0.3039947989066891 0.1597414928624445 0.8663661397025142 1 
54 18.29277102443189 21.41276373268145 0.28507485421616996 0.16049955846382497 0.13293127319704529 1 
55 19.207088797134332 23.46737979350247 0.2758376329609103 0.9794866891921996 0.6417480683730928 1 
56 19.62473880922432 12.078384854194455 0.26536009599765553 0.09575333499478988 0.20574732994896133 1 
57 15.787278459932049 20.090148509179425 0.29467317960367345 0.3201370973556694 0.03347096955027967 1 
58 10.448990876196666 20.429515610024218 0.321176777027071 0.40329290958682046 0.00944140139651295 1 
59 7.9131385688177796 9.493838785550812 0.2551279149547353 0.7156472784767725 0.04889441226519775 1 
60 3.3703741262353586 12.987433683329407 0.31781544133322076 0.8217275545719581 0.11725807568395685 1 
61 0.5268058138713488 24.40913445382114 0.265525148960278 0.7211684514098293 0.05157551795092863 1 
62 15.209253172221127 12.987256296988656 0.30022623026742384 0.9290040866382934 0.7568180165947158 1 
63 12.548961703311393 21.66775309702266 0.2662163779480313 0.4337761636005604 0.004405000537192394 1 
64 2.2436115853709016 8.90404156089417 0.3278681064676427 0.9477585539831946 0.27748645583947357 1 
65 11.697263464449836 6.818717201510958 0.2955375538000144 0.15504878851096993 0.1380488131083828 1 
66 3.627935258498515 21.50434503133464 0.28941718644668674 0.6825276827088117 0.0345070945277991 1 
67 1.374893222911244 14.078078913141951 0.31465057657023154 0.001573481125221765 0.5396359090014389 1 
68 6.380311881521466 22.5989954906933 0.2558930354887776 0.7448259006101197 0.06404096707323076 1 
69 12.755589909009501 5.846337993037346 0.30065680615169255 0.033940837027552184 0.31892306439134405 1 
70 7.4130332041070055 18.48916059456956 0.33815660362931704 0.555901688856529 0.0031348259507537057 1 
71 19.085935877212396 6.713602980551934 0.32448656658232905 0.008479881269985334 0.4083050007708584 1 
72 5.840322956357398 19.130710722891315 0.28175348714846493 0.6528490623289701 0.023935756283718967 1 
73 2.821272401043967 17.640210673268953 0.33846125421800677 0.7494650294183198 0.0666788730083464 1 
74 13.58595573516737 13.564411897370103 0.2986628923717455 0.30228509372013224 0.040751901653645284 1 
75 15.92009837650558 5.989341479577236 0.2519407279052828 0.04388451789740949 0.2951618517308814 1 
76 8.132318707559435 17.908762945974022 0.25566993314069325 0.005969415503826958 0.5770310429785916 1 
77 7.20976663062961 24.39773188630023 0.2925180788718221 0.5955846183976338 0.009221454497266413 1 
78 16.255866359405807 18.56342979558204 0.30587308943558955 0.2873120022470954 0.047491640285109826 1 
79 17.263205997218023 15.472934309995942 0.2567794249584787 0.2126881331790565 0.09079113990058274 1 
80 4.912315517011231 5.612124150577652 0.3203987056592254 0.9916043860980848 0.40875786297370476 1 
81 5.541860700498839 22.736235235026232 0.2972432406577558 0.42989298766321016 0.004939390759869489 1 
82 17.750422171158995 8.734528710082593 0.297911817397477 0.048569541016331874 0.2850336289049036 1 
83 16.040912993445957 15.0673924864216 0.27082941741980493 0.03260145011582355 0.6775910908975138 1 
84 5.3840122211217025 21.511420623434173 0.2602410406046812 0.636768291593993 0.019069199973155704 1 
85 14.586166401742746 21.373266065699433 0.265743063620512 0.21673958013204014 0.08797629372058324 1 
86 9.918134565036116 11.280145398964404 0.28269146784940863 0.5134623572488514 1.812679207547907E-4 1 
87 5.260430107409514 10.515152623789586 0.30621462953083584 0.8299834390823715 0.12435265217045549 1 
88 18.708600939355748 14.083494733079311 0.3207820419901434 0.15192732394841868 0.14104956862222479 1 
89 10.61597977852996 24.55079375882301 0.31290128937757916 0.48109281259486486 3.576096202133616E-4 1 
90 13.30022398049494 6.683113613438399 0.3336544743529099 0.03542079198706416 0.31515909683710885 1 
91 10.936080934202757 12.073832338243427 0.32727252767120596 0.42840221122489347 0.005152794650191805 1 
92 1.955079893174226 13.103758116814781 0.334763008641576 0.7324560789098619 0.05732159372988149 1 
93 6.484715784272521 17.134916690990316 0.3238855339163298 0.8289429151912711 0.12344116190763987 1 
94 18.830486977511168 9.327156857875288 0.32823495324856533 0.0499697575730883 0.2821175066666092 1 
95 0.5207782249937044 16.583745889846803 0.26957597540793143 0.8186323852471927 0.11467753365306538 1 
96 4.674057888803425 12.928885516573457 0.28411947448145325 0.7829712856245044 0.08777766737837311 1 
97 11.389575727044914 20.679765269615018 0.3042822675527272 0.5397317251248087 0.001581109889877197 1 
98 18.162640080218445 24.174077290253877 0.32630838732001105 0.47934219731628847 4.269270784494905E-4 1 
99 16.593668862067442 14.381523473459456 0.32708418159981334 0.6331856803184881 0.0180647610330808 1 
100 5.148714417164314 14.530960597053864 0.32597122895182373 0.7304927227684996 0.056296151976609976 1 
100
Time=401 Lattice="20.0 0.00000000 0.00000000 0.00000000 25.0 0.00000000 0.00000000 0.00000000 0.000000000000000001" Properties=id:I:1:pos:R:2:radius:R:1:color:R:3
1 16.875097963888607 17.31931037014204 0.3266471889405712 0.25446110360290364 0.06444213891137723 1 
2 9.282076888029936 16.541496806902245 0.3498144233031575 0.6759791382478035 0.03199215508545111 1 
3 9.078318647546663 9.635310304851249 0.3170022439672193 0.6116143689436344 0.012616954905780242 1 
4 13.873702116142917 19.77211209560603 0.3266079079836716 0.3701261576615413 0.01716174025224021 1 
5 7.40464916337339 5.710368092680244 0.25059964675724294 0.9830017714002398 0.37073558562299325 1 
6 8.586202415317006 8.341462365256238 0.30500972103471985 0.706142689784692 0.04447262272358182 1 
7 1.4547539997181869 6.35905860787216 0.2588701841167518 0.9939334947198805 0.422348839069813 1 
8 16.229613316387923 24.550453525846958 0.27874231339057876 0.34599941584438587 0.024307010688900732 1 
9 3.097068504310299 19.121405912416822 0.30303899106153165 0.7221663108746433 0.05206905631297215 1 
10 19.364689155292005 19.364271918726736 0.33396348807113474 0.22490516685806305 0.08248014085721639 1 
11 10.548685963792291 14.135253120442567 0.27724750617569915 0.5897850307441049 0.00812740648184096 1 
12 15.386102653420071 21.08672045017474 0.25730493659355486 0.46529287288382 0.0012060392032183787 1 
13 4.279906964964679 23.531358932627377 0.28028474531968445 0.649791280297604 0.022964810158826343 1 
14 11.009748968478563 23.21389289370456 0.3472258265158168 0.4575794861443548 0.001802749902989731 1 
15 1.0001785418686207 10.156302349922118 0.2563201384846625 0.9350122816005431 0.2534958116852984 1 
16 6.4179416835061 16.063277939261408 0.32382710320017394 0.7524836173371072 0.06843074370807045 1 
17 18.234427815725876 22.804645937241794 0.3177440656558571 0.1740726151364813 0.12082808675215967 1 
18 15.415272012547815 8.872404157511733 0.31509411754889727 0.06586987103368419 0.7480544922465425 1 
19 2.007297922861767 20.22823408193023 0.28395019754085876 0.7346213311022615 0.0584653682984731 1 
20 19.1988201867707 21.31541912804346 0.3374435044096231 0.37718772326662375 0.015317480526102933 1 
21 4.894282358770284 9.112082871362261 0.325295756329716 0.8921366666536583 0.18979227175043228 1 
22 13.960994366713743 24.274674521127796 0.3347610072787446 0.3969267713161898 0.010739425736453811 1 
23 6.4223516928834865 6.114325301660939 0.3197744901004439 0.978948477746129 0.3564438936698766 1 
24 14.309143295200654 5.515631424780985 0.3062092113524462 0.003389851109479536 0.44187633856220754 1 
25 5.695915522412353 18.04558756784027 0.265917780827855 0.6513075448164838 0.02344357429407401 1 
26 12.092421026541798 9.363931503097866 0.34139940031290283 0.5745625743980712 0.005590834936151201 1 
27 0.43814108866168344 14.748567773339587 0.25544945809338715 0.8516484390007257 0.14455186686613064 1 
28 4.266608943216484 16.660358993382367 0.30856374598894803 0.7228670702911968 0.05241730487001767 1 
29 8.74521067194936 17.46963519194768 0.27616974097952135 0.7850893255539588 0.08923963621694347 1 
30 15.615454288649774 6.8815316759386445 0.262699222269818 0.013654873317403116 0.3839464875495413 1 
31 7.2970274917659586 11.184609610971478 0.2739058842174951 0.7063774535556389 0.04457893476048985 1 
32 7.528661273879047 15.521167331524449 0.2759120306809796 0.6194065629872934 0.014467227969561736 1 
33 8.876695458371383 6.6164009811316085 0.26317689878263584 0.8016759170374458 0.10126244084659375 1 
34 11.160918970088828 9.075761321072257 0.2500621607592144 0.19547116531201186 0.10343703041814911 1 
35 18.87765277607845 17.487927727844784 0.3020744783319194 0.20814830084469943 0.09401652040980296 1 
36 15.245743887128562 7.736593115091067 0.2750459813867961 0.20324855634260625 0.09758407003791131 1 
37 7.922658928519562 20.66339329449479 0.27692254851957304 0.8865069391577809 0.18280544458820958 1 
38 2.050236365058188 14.595181524249915 0.30647695758915505 0.9926350828760812 0.5855024860438377 1 
39 9.642169041809932 14.385270815750475 0.3172660258582275 0.38591244711980355 0.013189944354260075 1 
40 15.431763230518921 17.40661110806616 0.2800093992248275 0.2961523319082403 0.043440991531706 1 
41 11.913757028407533 22.463645142102383 0.3489405913687944 0.4437214013172318 0.0031773763904224817 1 
42 7.094245454787166 20.119694149486275 0.2710392148703869 0.35811176762722674 0.0205547690151357 1 
43 6.178460360565375 24.162178386904653 0.31123750463047417 0.5786681053414912 0.006227451955882757 1 
44 18.198438593497425 11.1592117410908 0.27701273386591796 0.09851046929812635 0.20199638133608305 1 
45 7.290001721183183 21.565396583286724 0.308910462152561 0.5803596290963786 0.006499918934664728 1 
46 11.795589841977288 7.824629599014519 0.3131461538881694 0.2155902487797744 0.0887688078332951 1 
47 14.403848997655999 12.196354740882542 0.3379481471298183 0.1859213462833076 0.11095681566243831 1 
48 10.54767532029521 16.41555766923361 0.3031331936512713 0.47273654785175384 7.438491345747034E-4 1 
49 3.086518892455398 14.701152522526506 0.33919159103230967 0.987330007152817 0.3881542842642806 1 
50 16.33416078448745 11.050102894772317 0.3355880896798479 0.13575192430421912 0.15747505294953967 1 
51 4.934995359494501 6.59799887051499 0.27110719544172696 0.9864637409882129 0.3844446941774072 1 
52 5.46788963178676 16.47467150247121 0.27978957341591726 0.33121035178158076 0.029351453147571815 1 
53 16.54022195236799 6.489775718079979 0.3039947989066891 9.56676730958339E-4 0.5309153926158274 1 
54 18.223667095592035 21.33329035954487 0.28507485421616996 0.18249256573665806 0.11375004312296733 1 
55 19.29726634226267 23.467579652698902 0.2758376329609103 0.9339858498558469 0.2516931693954065 1 
56 19.552056359695424 12.025479025803634 0.26536009599765553 0.0957533329518539 0.20574733275556312 1 
57 15.754800821199215 20.005863323306304 0.29467317960367345 0.3203041145827642 0.03340661303002196 1 
58 10.431485761096262 20.335867168011102 0.321176777027071 0.41277053024324417 0.00766777517010403 1 
59 7.951721025429629 9.413056282905737 0.2551279149547353 0.7153133621184544 0.0487349380981868 1 
60 3.428199064212793 12.918683578229428 0.31781544133322076 0.821965417927166 0.11745814652644171 1 
61 0.5665721218943899 24.32850728496043 0.265525148960278 0.7211684514058366 0.051575517948959315 1 
62 15.243000564763703 12.991067735965593 0.30022623026742384 0.6508682324553539 0.023304314645289315 1 
63 12.536732780225503 21.576321727548613 0.2662163779480313 0.4336525053265775 0.004421540065995044 1 
64 2.3241191458804775 8.864033341156732 0.3278681064676427 0.9477585540212928 0.2774864559161375 1 
65 11.63367130162942 6.752003297989027 0.2955375538000144 0.15497741032958384 0.13811685226150738 1 
66 3.6607538699135826 21.420649048589162 0.28941718644668674 0.6825276184539094 0.034507069332364526 1 
67 1.1795148511018005 14.053406880743474 0.31465057657023154 0.031974390440114964 0.3240681131912182 1 
68 6.428056070848865 22.506346355094017 0.2558930354887776 0.71464771793478 0.04841793969933755 1 
69 12.662893568148121 5.810720097848518 0.30065680615169255 0.032608763807661645 0.32238966153233706 1 
70 7.415023938773304 18.41363951589815 0.33815660362931704 0.4464066816249693 0.002880541292585692 1 
71 18.997560070049584 6.6971161283006735 0.32448656658232905 0.008479881296923564 0.40830500062645914 1 
72 5.866849380840656 19.04800305365754 0.28175348714846493 0.6525494348025411 0.02383965941982813 1 
73 2.866128551773964 17.562295380600364 0.33846125421800677 0.7494645743510857 0.066678611024298 1 
74 13.55040939163385 13.481844382378101 0.2986628923717455 0.3022895851698352 0.04074996802647457 1 
75 15.78799428893663 5.93530955416757 0.2519407279052828 0.031669321060597 0.3248818251461093 1 
76 8.034228111895198 17.899484519904295 0.25566993314069325 0.07647527330551213 0.23424295704843612 1 
77 7.226938894312923 24.309364460649245 0.2925180788718221 0.5951691766588416 0.00914072504018204 1 
78 16.217702622333704 18.482237843462435 0.30587308943558955 0.2872942200956604 0.04749999867924126 1 
79 17.211698145267093 15.39959099283354 0.2567794249584787 0.21260731268957922 0.09084789713299196 1 
80 5.001960667530384 5.59545285652789 0.3203987056592254 0.9915380309235267 0.4084010690246764 1 
81 5.535044051159017 22.654166776520935 0.2972432406577558 0.4829922216239939 2.893482476957754E-4 1 
82 17.668733281748 8.6956295982275 0.297911817397477 0.04856837493423477 0.2850360777002746 1 
83 15.92356803852524 15.07784551505119 0.27082941741980493 0.008331085515530523 0.4091062239222979 1 
84 5.408665394562836 21.424737241051403 0.2602410406046812 0.6367882326304308 0.01907487130131874 1 
85 14.535410343280885 21.293178440131168 0.265743063620512 0.24657658875634342 0.06898193235824962 1 
86 9.920553883453769 11.19014418329754 0.28269146784940863 0.5134069261489842 1.7977798888962893E-4 1 
87 5.319742175435938 10.447635755661569 0.30621462953083584 0.8300004005369092 0.12436755245921643 1 
88 18.646017132121685 14.018955089752666 0.3207820419901434 0.15192735378673872 0.14104953968813772 1 
89 10.612591410667799 24.46126440227363 0.31290128937757916 0.48108769459899914 3.578033187956464E-4 1 
90 13.226179795271966 6.653277765185353 0.3336544743529099 0.03703431622795378 0.311154095491902 1 