5
Time=1 Lattice="20.0 0.00000000 0.00000000 0.00000000 25.0 0.00000000 0.00000000 0.00000000 0.000000000000000001" Properties=id:I:1:pos:R:2:radius:R:1:color:R:3
1 4.187946066570575 7.646367973466408 0.27722433272589847 0.9560578607881537 0.29503359393956036 1 
2 9.92855874205782 5.806718469980503 0.28330437710730594 0.5900199492845799 0.008170345820017022 1 
3 9.287742633732506 8.762507356949301 0.3258327223146878 0.6025522990667337 0.010629970312722115 1 
4 4.693425751708155 11.552133612617272 0.28128189973642614 0.8173935653192546 0.11365646803145246 1 
5 0.1731248480768277 16.107159716002926 0.30852170991991923 0.9999952185884383 0.4978133613239015 1 
5
Time=201 Lattice="20.0 0.00000000 0.00000000 0.00000000 25.0 0.00000000 0.00000000 0.00000000 0.000000000000000001" Properties=id:I:1:pos:R:2:radius:R:1:color:R:3
1 4.220494955995488 7.631739503132713 0.27722433272589847 0.95605786078551 0.2950335939336781 1 
2 9.934983473722257 5.771616544533679 0.28330437710730594 0.5900199494041101 0.008170345841894688 1 
3 9.295061800288623 8.727580975116126 0.3258327223146878 0.6025522990599811 0.01062997031130708 1 
4 4.716078158232423 11.524560240940493 0.28128189973642614 0.8173935653190617 0.11365646803129403 1 
5 1.2679495499969584 16.08538145704999 0.30852170991991923 0.9994401391007429 0.4763452445577941 1 
5
Time=401 Lattice="20.0 0.00000000 0.00000000 0.00000000 25.0 0.00000000 0.00000000 0.00000000 0.000000000000000001" Properties=id:I:1:pos:R:2:radius:R:1:color:R:3
1 4.302494613964041 7.594886339011341 0.27722433272589847 0.956057860785101 0.29503359393276807 1 
2 9.951169150357227 5.683185082460967 0.28330437710730594 0.5900199494036553 0.008170345841811477 1 
3 9.313500805884711 8.639591755974067 0.3258327223146878 0.6025522990666107 0.010629970312696357 1 
4 4.7731458376538765 11.45509528878498 0.28128189973642614 0.8173935653128188 0.11365646802616536 1 
5 2.090071032520712 16.0194278035205 0.30852170991991923 0.9963911079000818 0.4400344432383943 1 
5
Time=601 Lattice="20.0 0.00000000 0.00000000 0.00000000 25.0 0.00000000 0.00000000 0.00000000 0.000000000000000001" Properties=id:I:1:pos:R:2:radius:R:1:color:R:3
1 4.417628839195596 7.543141482951837 0.27722433272589847 0.9560578607848039 0.29503359393210704 1 
2 9.973895163920407 5.559020078311588 0.28330437710730594 0.5900199493999517 0.00817034584113363 1 
3 9.33939067757412 8.516047697062952 0.3258327223146878 0.6025522990634096 0.01062997031202556 1 
4 4.853273526217283 11.357560815527451 0.28128189973642614 0.8173935653166835 0.11365646802934021 1 
5 2.679643131860258 15.921800561283348 0.30852170991991923 0.9883532534567528 0.39271020627196407 1 
5
Time=801 Lattice="20.0 0.00000000 0.00000000 0.00000000 25.0 0.00000000 0.00000000 0.00000000 0.000000000000000001" Properties=id:I:1:pos:R:2:radius:R:1:color:R:3
1 4.554964934691762 7.4814184246785445 0.27722433272589847 0.9560578607849508 0.29503359393243384 1 
2 10.001003540795661 5.410911756629216 0.28330437710730594 0.590019949397846 0.008170345840748161 1 
3 9.370273014112453 8.36868006038872 0.3258327223146878 0.6025522990657218 0.010629970312510117 1 
4 4.948852611118886 11.241218314360164 0.28128189973642614 0.8173935653170866 0.11365646802967144 1 
5 3.1116808753432905 15.801744980239652 0.30852170991991923 0.9724618670414344 0.3363547000622322 1 
5
Time=1001 Lattice="20.0 0.00000000 0.00000000 0.00000000 25.0 0.00000000 0.00000000 0.00000000 0.000000000000000001" Properties=id:I:1:pos:R:2:radius:R:1:color:R:3
1 4.707177429186013 7.413009455910225 0.27722433272589847 0.9560578607847969 0.2950335939320916 1 
2 10.031048327281763 5.246760176395083 0.28330437710730594 0.5900199494033174 0.008170345841749582 1 
3 9.404500559780606 8.205349396989101 0.3258327223146878 0.602552299066098 0.010629970312588943 1 
4 5.054784929071716 11.112273463740717 0.28128189973642614 0.8173935653174624 0.11365646802998014 1 
5 3.4369222486760322 15.665839439597022 0.30852170991991923 0.9473091306526615 0.27658437468529606 1 
5
Time=1201 Lattice="20.0 0.00000000 0.00000000 0.00000000 25.0 0.00000000 0.00000000 0.00000000 0.000000000000000001" Properties=id:I:1:pos:R:2:radius:R:1:color:R:3
1 4.86935787883612 7.340120582024264 0.27722433272589847 0.9560578607836294 0.2950335939294936 1 
2 10.063060659765835 5.071858784878981 0.28330437710730594 0.5900199493975912 0.008170345840701532 1 
3 9.440969568224418 8.031322681772933 0.3258327223146878 0.6025522990646833 0.010629970312292458 1 
4 5.1676544475368145 10.974884388533928 0.28128189973642614 0.8173935653188995 0.1136564680311608 1 
5 3.6897205346665056 15.518752427773993 0.30852170991991923 0.9148775044289187 0.22093610710299239 1 
4
Time=1401 Lattice="20.0 0.00000000 0.00000000 0.00000000 25.0 0.00000000 0.00000000 0.00000000 0.000000000000000001" Properties=id:I:1:pos:R:2:radius:R:1:color:R:3
1 5.0382173729241915 7.2642299404857384 0.27722433272589847 0.9560578607850574 0.29503359393267087 1 
2 9.47894047241639 7.8501290597764495 0.3258327223146878 0.6025522990657661 0.010629970312519388 1 
3 5.285172248400565 10.83183724701626 0.28128189973642614 0.8173935653188367 0.11365646803110918 1 
4 3.893354071724796 15.363788989363549 0.30852170991991923 0.8800616815827198 0.1751106062172616 1 
4
Time=1601 Lattice="20.0 0.00000000 0.00000000 0.00000000 25.0 0.00000000 0.00000000 0.00000000 0.000000000000000001" Properties=id:I:1:pos:R:2:radius:R:1:color:R:3
1 5.211552171515749 7.186327959686993 0.27722433272589847 0.9560578607843097 0.29503359393100725 1 
2 9.517917724280633 7.66413324032668 0.3258327223146878 0.6025522990723227 0.010629970313893344 1 
3 5.405804638386852 10.684998909035428 0.28128189973642614 0.8173935653185902 0.11365646803090668 1 
4 4.063606685479959 15.203284055565131 0.30852170991991923 0.847818882393202 0.14080363998121598 1 
4
Time=1801 Lattice="20.0 0.00000000 0.00000000 0.00000000 25.0 0.00000000 0.00000000 0.00000000 0.000000000000000001" Properties=id:I:1:pos:R:2:radius:R:1:color:R:3
1 5.387885655112274 7.107078277771104 0.27722433272589847 0.9560578607836283 0.29503359392949124 1 
2 9.55756928102607 7.474919700723697 0.3258327223146878 0.6025522990680716 0.010629970313002501 1 
3 5.528523963841171 10.535620273748044 0.28128189973642614 0.8173935653223205 0.11365646803397128 1 
4 4.211186153505738 15.038884347054113 0.30852170991991923 0.820991573756547 0.11664062607352965 1 
4
Time=2001 Lattice="20.0 0.00000000 0.00000000 0.00000000 25.0 0.00000000 0.00000000 0.00000000 0.000000000000000001" Properties=id:I:1:pos:R:2:radius:R:1:color:R:3
1 5.5662284124352945 7.026925566546793 0.27722433272589847 0.9560578607845914 0.29503359393163414 1 
2 9.597672656841754 7.283550122539216 0.3258327223146878 0.6025522990614806 0.010629970311621273 1 
3 5.652641643773683 10.384539508151244 0.28128189973642614 0.8173935653212594 0.11365646803309959 1 
4 4.343359884133035 14.871749568623851 0.30852170991991923 0.8002156440702249 0.10016182391434902 1 
4
Time=2201 Lattice="20.0 0.00000000 0.00000000 0.00000000 25.0 0.00000000 0.00000000 0.00000000 0.000000000000000001" Properties=id:I:1:pos:R:2:radius:R:1:color:R:3
1 5.745917486861226 6.946167779077552 0.27722433272589847 0.9560578607844477 0.2950335939313143 1 
2 9.638078774759055 7.09073588722354 0.3258327223146878 0.6025522990703364 0.010629970313477122 1 
3 5.777696293380754 10.232318227391515 0.28128189973642614 0.8173935653194067 0.11365646803157753 1 
4 4.465062236614415 14.702695484145739 0.30852170991991923 0.7848482500654512 0.08907242191031983 1 
4
Time=2401 Lattice="20.0 0.00000000 0.00000000 0.00000000 25.0 0.00000000 0.00000000 0.00000000 0.000000000000000001" Properties=id:I:1:pos:R:2:radius:R:1:color:R:3
1 5.926508663234244 6.865004559293602 0.27722433272589847 0.9560578607838426 0.2950335939299681 1 
2 9.678687745509762 6.896953657066612 0.3258327223146878 0.6025522990701022 0.01062997031342805 1 
3 5.903378761030374 10.079332742605956 0.28128189973642614 0.8173935653200155 0.11365646803207763 1 
4 4.579644707784598 14.532295360380196 0.30852170991991923 0.7738044897808632 0.08163281513024812 1 
4
Time=2601 Lattice="20.0 0.00000000 0.00000000 0.00000000 25.0 0.00000000 0.00000000 0.00000000 0.000000000000000001" Properties=id:I:1:pos:R:2:radius:R:1:color:R:3
1 6.107704294472765 6.783569678932914 0.27722433272589847 0.9560578607837693 0.295033593929805 1 
2 9.71943263812752 6.702522820403175 0.3258327223146878 0.6025522990676923 0.01062997031292301 1 
3 6.029481899172045 9.925835201680242 0.28128189973642614 0.8173935653186352 0.11365646803094365 1 
4 4.689384466378349 14.360951721899998 0.30852170991991923 0.7660099141995388 0.0766340524468766 1 
4
Time=2801 Lattice="20.0 0.00000000 0.00000000 0.00000000 25.0 0.00000000 0.00000000 0.00000000 0.000000000000000001" Properties=id:I:1:pos:R:2:radius:R:1:color:R:3
1 6.289304941668922 6.701952771964258 0.27722433272589847 0.9560578607834274 0.29503359392904427 1 
2 9.760268605410005 6.5076573839042435 0.3258327223146878 0.602552299063869 0.010629970312121817 1 
3 6.155866908256427 9.771994556712162 0.28128189973642614 0.8173935653190357 0.11365646803127272 1 
4 4.795829243310323 14.188947008536525 0.30852170991991923 0.7605706841180555 0.0732648144595427 1 
4
Time=3001 Lattice="20.0 0.00000000 0.00000000 0.00000000 25.0 0.00000000 0.00000000 0.00000000 0.000000000000000001" Properties=id:I:1:pos:R:2:radius:R:1:color:R:3
1 6.471176970461099 6.620213897773476 0.27722433272589847 0.9560578607839814 0.2950335939302766 1 
2 9.801165597419953 6.312500743084806 0.3258327223146878 0.6025522990674637 0.010629970312875103 1 
3 6.282440785420797 9.617924014326489 0.28128189973642614 0.8173935653198429 0.1136564680319358 1 
4 4.900031334514734 14.016479282627792 0.30852170991991923 0.7568021904955253 0.07098643965872131 1 
4
Time=3201 Lattice="20.0 0.00000000 0.00000000 0.00000000 25.0 0.00000000 0.00000000 0.00000000 0.000000000000000001" Properties=id:I:1:pos:R:2:radius:R:1:color:R:3
1 6.653230838929838 6.538393299249327 0.27722433272589847 0.9560578607839434 0.29503359393019246 1 
2 9.842103479147232 6.11714898034089 0.3258327223146878 0.6025522990640416 0.01062997031215801 1 
3 6.409141213946029 9.463699428804299 0.28128189973642614 0.8173935653176294 0.11365646803011742 1 
4 5.002706426653622 13.843687365867568 0.30852170991991923 0.7542030471493987 0.06944128063647276 1 
4
Time=3401 Lattice="20.0 0.00000000 0.00000000 0.00000000 25.0 0.00000000 0.00000000 0.00000000 0.000000000000000001" Properties=id:I:1:pos:R:2:radius:R:1:color:R:3
1 6.835406549367502 6.456517941202363 0.27722433272589847 0.9560578607833659 0.29503359392890716 1 
2 9.883068759094883 5.921666475836018 0.3258327223146878 0.6025522990677821 0.010629970312941828 1 
3 6.535926438415104 9.309371626431538 0.28128189973642614 0.8173935653195223 0.11365646803167245 1 
4 5.104341433972516 13.670668515943799 0.30852170991991923 0.7524154906150761 0.06839089432966033 1 
4
Time=3601 Lattice="20.0 0.00000000 0.00000000 0.00000000 25.0 0.00000000 0.00000000 0.00000000 0.000000000000000001" Properties=id:I:1:pos:R:2:radius:R:1:color:R:3
1 7.017663900213125 6.374605891448828 0.27722433272589847 0.956057860782703 0.2950335939274325 1 
2 9.924052397265084 5.726096367602726 0.3258327223146878 0.6025522990626389 0.010629970311864023 1 
3 6.662768480543072 9.154974663441168 0.28128189973642614 0.8173935653206079 0.11365646803256435 1 
4 5.205267739036554 13.497490845748798 0.30852170991991923 0.7511882358650774 0.06767550362836228 1 
4
Time=3801 Lattice="20.0 0.00000000 0.00000000 0.00000000 25.0 0.00000000 0.00000000 0.00000000 0.000000000000000001" Properties=id:I:1:pos:R:2:radius:R:1:color:R:3
1 7.199975954346223 6.2926692563572635 0.27722433272589847 0.9560578607819538 0.2950335939257652 1 
2 9.965048336390236 5.530467560349704 0.3258327223146878 0.6025522990627579 0.010629970311888948 1 
3 6.789648593435715 9.000531359268976 0.28128189973642614 0.8173935653202595 0.11365646803227808 1 
4 5.305710951897254 13.3242020420862 0.30852170991991923 0.7503465099387803 0.06718754065822902 1 
4
Time=4001 Lattice="20.0 0.00000000 0.00000000 0.00000000 25.0 0.00000000 0.00000000 0.00000000 0.000000000000000001" Properties=id:I:1:pos:R:2:radius:R:1:color:R:3
1 7.382324662505006 6.210716147820067 0.27722433272589847 0.9560578607807046 0.29503359392298584 1 
2 10.006052517790566 5.334799421723612 0.3258327223146878 0.6025522990651155 0.010629970312383052 1 
3 6.916554215705495 8.846057004110056 0.28128189973642614 0.8173935653193165 0.11365646803150331 1 
4 5.40582472645656 13.150835482398271 0.30852170991991923 0.7497695057687068 0.06685430397145126 1 
4
Time=4201 Lattice="20.0 0.00000000 0.00000000 0.00000000 25.0 0.00000000 0.00000000 0.00000000 0.000000000000000001" Properties=id:I:1:pos:R:2:radius:R:1:color:R:3
1 7.5646979307521915 6.128752001223378 0.27722433272589847 0.9560578607784334 0.2950335939179321 1 
2 10.047062221942559 5.139104929047385 0.3258327223146878 0.6025522990664233 0.010629970312657111 1 
3 7.043476930573337 8.691561843190645 0.28128189973642614 0.8173935653202253 0.11365646803224999 1 
4 5.505713749167 12.977414523566061 0.30852170991991923 0.7493740455506148 0.06662650588006669 1 
3
Time=4401 Lattice="20.0 0.00000000 0.00000000 0.00000000 25.0 0.00000000 0.00000000 0.00000000 0.000000000000000001" Properties=id:I:1:pos:R:2:radius:R:1:color:R:3
1 7.747087655523881 6.046780458555341 0.27722433272589847 0.9560578607728606 0.29503359390553263 1 
2 7.170411098363223 8.537052741339833 0.28128189973642614 0.8173935653260315 0.11365646803701995 1 
3 5.60544937185312 12.803955507510183 0.30852170991991923 0.7491030007052402 0.06647065262009638 1 
3
Time=4601 Lattice="20.0 0.00000000 0.00000000 0.00000000 25.0 0.00000000 0.00000000 0.00000000 0.000000000000000001" Properties=id:I:1:pos:R:2:radius:R:1:color:R:3
1 7.929488407021103 5.964803960130793 0.27722433272589847 0.9560578607640868 0.2950335938860107 1 
2 7.297352940200151 8.382534298352473 0.28128189973642614 0.8173935653340125 0.11365646804357665 1 
3 5.705080245749719 12.630469866609438 0.30852170991991923 0.7489171930377858 0.06636394175508226 1 
3
Time=4801 Lattice="20.0 0.00000000 0.00000000 0.00000000 25.0 0.00000000 0.00000000 0.00000000 0.000000000000000001" Properties=id:I:1:pos:R:2:radius:R:1:color:R:3
1 8.111896547000123 5.882824141081859 0.27722433272589847 0.9560578607466075 0.2950335938471187 1 
2 7.424299924041399 8.228009596333317 0.28128189973642614 0.8173935653542588 0.11365646806020963 1 
3 5.804639557540093 12.45696559798555 0.30852170991991923 0.7487897780281407 0.06629082745610687 1 
3
Time=5001 Lattice="20.0 0.00000000 0.00000000 0.00000000 25.0 0.00000000 0.00000000 0.00000000 0.000000000000000001" Properties=id:I:1:pos:R:2:radius:R:1:color:R:3
1 8.294309637651711 5.800842097019827 0.27722433272589847 0.9560578607091332 0.2950335937637367 1 
2 7.551250353282866 8.073480700464739 0.28128189973642614 0.8173935653908883 0.11365646809030189 1 
3 5.9041499548474405 12.283448295502502 0.30852170991991923 0.7487023703195962 0.0662406992381438 1 
3
Time=5201 Lattice="20.0 0.00000000 0.00000000 0.00000000 25.0 0.00000000 0.00000000 0.00000000 0.000000000000000001" Properties=id:I:1:pos:R:2:radius:R:1:color:R:3
1 8.476726045526242 5.718858562041143 0.27722433272589847 0.956057860640376 0.2950335936107497 1 
2 7.678203091103398 7.918948994544531 0.28128189973642614 0.8173935654519258 0.11365646814044605 1 
3 6.003626900119267 12.109921871970238 0.30852170991991923 0.7486423800813217 0.06620630845124598 1 
3
Time=5401 Lattice="20.0 0.00000000 0.00000000 0.00000000 25.0 0.00000000 0.00000000 0.00000000 0.000000000000000001" Properties=id:I:1:pos:R:2:radius:R:1:color:R:3
1 8.659144676144326 5.6368740279964475 0.27722433272589847 0.9560578605249355 0.2950335933538901 1 
2 7.805157375757978 7.764415405823648 0.28128189973642614 0.8173935655511234 0.11365646822194014 1 
3 6.103080955190576 11.936389064430749 0.30852170991991923 0.7486011857584258 0.06618269923906367 1 
3
Time=5601 Lattice="20.0 0.00000000 0.00000000 0.00000000 25.0 0.00000000 0.00000000 0.00000000 0.000000000000000001" Properties=id:I:1:pos:R:2:radius:R:1:color:R:3
1 8.841564796181151 5.554888824399276 0.27722433272589847 0.9560578603331836 0.2950335929272351 1 
2 7.932112696808407 7.609880555664039 0.28128189973642614 0.8173935657035014 0.11365646834712362 1 
3 6.202519338035558 11.762851787610632 0.30852170991991923 0.7485728821898152 0.0661664809632061 1 
3
Time=5801 Lattice="20.0 0.00000000 0.00000000 0.00000000 25.0 0.00000000 0.00000000 0.00000000 0.000000000000000001" Properties=id:I:1:pos:R:2:radius:R:1:color:R:3
1 9.023985914327529 5.472903171961152 0.27722433272589847 0.9560578600341929 0.2950335922619697 1 
2 8.059068712180855 7.455344860497172 0.28128189973642614 0.8173935659154001 0.11365646852120509 1 
3 6.301946983980992 11.589311381136326 0.30852170991991923 0.7485534235992132 0.0661553323859908 1 
3
Time=6001 Lattice="20.0 0.00000000 0.00000000 0.00000000 25.0 0.00000000 0.00000000 0.00000000 0.000000000000000001" Properties=id:I:1:pos:R:2:radius:R:1:color:R:3
1 9.206407701472987 5.390917218462361 0.27722433272589847 0.9560578595964648 0.2950335912880083 1 
2 8.186025192581996 7.300808599481395 0.28128189973642614 0.8173935661969163 0.1136564687524797 1 
3 6.401367269411741 11.415768782412814 0.30852170991991923 0.7485400371141367 0.0661476634253268 1 
3
Time=6201 Lattice="20.0 0.00000000 0.00000000 0.00000000 25.0 0.00000000 0.00000000 0.00000000 0.000000000000000001" Properties=id:I:1:pos:R:2:radius:R:1:color:R:3
1 9.388829937245509 5.308931062786485 0.27722433272589847 0.9560578590077667 0.29503358997813334 1 
2 8.312981984242192 7.1462719598411635 0.28128189973642614 0.817393566525246 0.11365646902221299 1 
3 6.500782505510943 11.242224647521036 0.30852170991991923 0.7485308214813983 0.06614238421599494 1 
3
Time=6401 Lattice="20.0 0.00000000 0.00000000 0.00000000 25.0 0.00000000 0.00000000 0.00000000 0.000000000000000001" Properties=id:I:1:pos:R:2:radius:R:1:color:R:3
1 9.571252474215127 5.2269447710531285 0.27722433272589847 0.9560578583259558 0.29503358846107886 1 
2 8.439938983931198 6.991735067245859 0.28128189973642614 0.8173935668365253 0.11365646927793888 1 
3 6.600194275261187 11.068679435757346 0.30852170991991923 0.7485244724702965 0.06613874731273728 1 
3
Time=6601 Lattice="20.0 0.00000000 0.00000000 0.00000000 25.0 0.00000000 0.00000000 0.00000000 0.000000000000000001" Properties=id:I:1:pos:R:2:radius:R:1:color:R:3
1 9.75367521393899 5.144958387511489 0.27722433272589847 0.9560578578004284 0.29503358729176066 1 
2 8.56689612222191 6.837198006152276 0.28128189973642614 0.8173935670223056 0.1136564694305634 1 
3 6.699603663562939 10.895133468743644 0.30852170991991923 0.7485200949364894 0.06613623980244876 1 
3
Time=6801 Lattice="20.0 0.00000000 0.00000000 0.00000000 25.0 0.00000000 0.00000000 0.00000000 0.000000000000000001" Properties=id:I:1:pos:R:2:radius:R:1:color:R:3
1 9.9360980910294 5.062971942143192 0.27722433272589847 0.9560578585122541 0.2950335888755993 1 
2 8.693853352276655 6.682660833399872 0.28128189973642614 0.8173935669038566 0.11365646933325368 1 
3 6.799011414444688 10.721586971772048 0.30852170991991923 0.7485170741780658 0.06613450950556837 1 
2
Time=7001 Lattice="20.0 0.00000000 0.00000000 0.00000000 25.0 0.00000000 0.00000000 0.00000000 0.000000000000000001" Properties=id:I:1:pos:R:2:radius:R:1:color:R:3
1 8.82081064255599 6.528123587047053 0.28128189973642614 0.8173935662902254 0.1136564688291361 1 
2 6.89841803851776 10.548040102717483 0.30852170991991923 0.7485149878177328 0.06613331445021947 1 
2
Time=7201 Lattice="20.0 0.00000000 0.00000000 0.00000000 25.0 0.00000000 0.00000000 0.00000000 0.000000000000000001" Properties=id:I:1:pos:R:2:radius:R:1:color:R:3
1 8.947767976114696 6.3735862874511335 0.28128189973642614 0.8173935656414939 0.11365646829618237 1 
2 6.997823886461067 10.37449297225647 0.30852170991991923 0.748513545466945 0.06613248828767021 1 
2
Time=7401 Lattice="20.0 0.00000000 0.00000000 0.00000000 25.0 0.00000000 0.00000000 0.00000000 0.000000000000000001" Properties=id:I:1:pos:R:2:radius:R:1:color:R:3
1 9.07472534007418 6.2190489503895465 0.28128189973642614 0.817393565151217 0.11365646789340422 1 
2 7.0972291993016015 10.200945658018348 0.30852170991991923 0.748512547327526 0.06613191656819911 1 
2
Time=7601 Lattice="20.0 0.00000000 0.00000000 0.00000000 25.0 0.00000000 0.00000000 0.00000000 0.000000000000000001" Properties=id:I:1:pos:R:2:radius:R:1:color:R:3
1 9.201682724384778 6.0645115882086325 0.28128189973642614 0.8173935647797691 0.11365646758824793 1 
2 7.1966341428355065 10.027398214474514 0.30852170991991923 0.7485118558483408 0.06613152050095467 1 
2
Time=7801 Lattice="20.0 0.00000000 0.00000000 0.00000000 25.0 0.00000000 0.00000000 0.00000000 0.000000000000000001" Properties=id:I:1:pos:R:2:radius:R:1:color:R:3
1 9.328640122313375 5.909974209182329 0.28128189973642614 0.8173935644894905 0.11365646734977475 1 
2 7.296038831207445 9.853850679875281 0.30852170991991923 0.748511376263558 0.06613124580399632 1 
2
Time=8001 Lattice="20.0 0.00000000 0.00000000 0.00000000 25.0 0.00000000 0.00000000 0.00000000 0.000000000000000001" Properties=id:I:1:pos:R:2:radius:R:1:color:R:3
1 9.455597529351492 5.755436818856489 0.28128189973642614 0.8173935642582777 0.11365646715982602 1 
2 7.395443343074382 9.680303081095225 0.30852170991991923 0.7485110432279349 0.06613105504799782 1 
2
Time=8201 Lattice="20.0 0.00000000 0.00000000 0.00000000 25.0 0.00000000 0.00000000 0.00000000 0.000000000000000001" Properties=id:I:1:pos:R:2:radius:R:1:color:R:3
1 9.582554942479735 5.600899420947705 0.28128189973642614 0.8173935640693577 0.11365646700462229 1 
2 7.494847732691836 9.50675543703028 0.30852170991991923 0.7485108116574496 0.06613092240935675 1 
2
Time=8401 Lattice="20.0 0.00000000 0.00000000 0.00000000 25.0 0.00000000 0.00000000 0.00000000 0.000000000000000001" Properties=id:I:1:pos:R:2:radius:R:1:color:R:3
1 9.709512359673894 5.44636201794647 0.28128189973642614 0.8173935639045281 0.1136564668692095 1 
2 7.594252037522412 9.333207760975954 0.30852170991991923 0.748510650405722 0.0661308300478991 1 
2
Time=8601 Lattice="20.0 0.00000000 0.00000000 0.00000000 25.0 0.00000000 0.00000000 0.00000000 0.000000000000000001" Properties=id:I:1:pos:R:2:radius:R:1:color:R:3
1 9.836469779576237 5.291824611519484 0.28128189973642614 0.8173935637480134 0.11365646674062757 1 
2 7.693656283462525 9.15966006229574 0.30852170991991923 0.7485105379458106 0.06613076563337211 1 
2
Time=8801 Lattice="20.0 0.00000000 0.00000000 0.00000000 25.0 0.00000000 0.00000000 0.00000000 0.000000000000000001" Properties=id:I:1:pos:R:2:radius:R:1:color:R:3
1 9.963427201269761 5.137287202777649 0.28128189973642614 0.8173935635649903 0.11365646659026835 1 
2 7.793060488433556 8.98611234758999 0.30852170991991923 0.7485104593869442 0.06613072063663006 1 
1
Time=9001 Lattice="20.0 0.00000000 0.00000000 0.00000000 25.0 0.00000000 0.00000000 0.00000000 0.000000000000000001" Properties=id:I:1:pos:R:2:radius:R:1:color:R:3
1 7.892464664854294 8.812564621518046 0.30852170991991923 0.7485104044112221 0.06613068914779086 1 
1
Time=9201 Lattice="20.0 0.00000000 0.00000000 0.00000000 25.0 0.00000000 0.00000000 0.00000000 0.000000000000000001" Properties=id:I:1:pos:R:2:radius:R:1:color:R:3
1 7.991868821342172 8.639016887370245 0.30852170991991923 0.7485103658588779 0.06613066706589338 1 
1
Time=9401 Lattice="20.0 0.00000000 0.00000000 0.00000000 25.0 0.00000000 0.00000000 0.00000000 0.000000000000000001" Properties=id:I:1:pos:R:2:radius:R:1:color:R:3
1 8.091272963884133 8.465469147472458 0.30852170991991923 0.7485103387651075 0.0661306515472066 1 
1
Time=9601 Lattice="20.0 0.00000000 0.00000000 0.00000000 25.0 0.00000000 0.00000000 0.00000000 0.000000000000000001" Properties=id:I:1:pos:R:2:radius:R:1:color:R:3
1 8.190677096646393 8.291921403473271 0.30852170991991923 0.7485103196805767 0.0661306406160288 1 
1
Time=9801 Lattice="20.0 0.00000000 0.00000000 0.00000000 25.0 0.00000000 0.00000000 0.00000000 0.000000000000000001" Properties=id:I:1:pos:R:2:radius:R:1:color:R:3
1 8.290081222534145 8.118373656542635 0.30852170991991923 0.7485103062018882 0.0661306328957485 1 
1
Time=10001 Lattice="20.0 0.00000000 0.00000000 0.00000000 25.0 0.00000000 0.00000000 0.00000000 0.000000000000000001" Properties=id:I:1:pos:R:2:radius:R:1:color:R:3
1 8.389485343576366 7.944825907510068 0.30852170991991923 0.7485102966547691 0.0661306274273803 1 
1
Time=10201 Lattice="20.0 0.00000000 0.00000000 0.00000000 25.0 0.00000000 0.00000000 0.00000000 0.000000000000000001" Properties=id:I:1:pos:R:2:radius:R:1:color:R:3
1 8.488889461192768 7.771278156965953 0.30852170991991923 0.7485102898684546 0.06613062354033705 1 
1
Time=10401 Lattice="20.0 0.00000000 0.00000000 0.00000000 25.0 0.00000000 0.00000000 0.00000000 0.000000000000000001" Properties=id:I:1:pos:R:2:radius:R:1:color:R:3
1 8.588293576377804 7.597730405331764 0.30852170991991923 0.7485102850291695 0.06613062076850718 1 
1
Time=10601 Lattice="20.0 0.00000000 0.00000000 0.00000000 25.0 0.00000000 0.00000000 0.00000000 0.000000000000000001" Properties=id:I:1:pos:R:2:radius:R:1:color:R:3
1 8.687697689831559 7.424182652908587 0.30852170991991923 0.748510281562943 0.06613061878313331 1 
1
Time=10801 Lattice="20.0 0.00000000 0.00000000 0.00000000 25.0 0.00000000 0.00000000 0.00000000 0.000000000000000001" Properties=id:I:1:pos:R:2:radius:R:1:color:R:3
1 8.787101802046742 7.250634899911694 0.30852170991991923 0.7485102790665137 0.06613061735323672 1 
1
Time=11001 Lattice="20.0 0.00000000 0.00000000 0.00000000 25.0 0.00000000 0.00000000 0.00000000 0.000000000000000001" Properties=id:I:1:pos:R:2:radius:R:1:color:R:3
1 8.886505913371357 7.0770871464955585 0.30852170991991923 0.7485102772637411 0.06613061632065054 1 
1
Time=11201 Lattice="20.0 0.00000000 0.00000000 0.00000000 25.0 0.00000000 0.00000000 0.00000000 0.000000000000000001" Properties=id:I:1:pos:R:2:radius:R:1:color:R:3
1 8.985910024051611 6.903539392771315 0.30852170991991923 0.7485102759433929 0.06613061556438593 1 
1
Time=11401 Lattice="20.0 0.00000000 0.00000000 0.00000000 25.0 0.00000000 0.00000000 0.00000000 0.000000000000000001" Properties=id:I:1:pos:R:2:radius:R:1:color:R:3
1 9.085314134263237 6.729991638819541 0.30852170991991923 0.7485102749865533 0.06613061501633044 1 
1
Time=11601 Lattice="20.0 0.00000000 0.00000000 0.00000000 25.0 0.00000000 0.00000000 0.00000000 0.000000000000000001" Properties=id:I:1:pos:R:2:radius:R:1:color:R:3
1 9.184718244130572 6.5564438846976945 0.30852170991991923 0.7485102742624689 0.06613061460159175 1 
1
Time=11801 Lattice="20.0 0.00000000 0.00000000 0.00000000 25.0 0.00000000 0.00000000 0.00000000 0.000000000000000001" Properties=id:I:1:pos:R:2:radius:R:1:color:R:3
1 9.284122353743644 6.382896130448429 0.30852170991991923 0.7485102737353901 0.06613061429969336 1 
1
Time=12001 Lattice="20.0 0.00000000 0.00000000 0.00000000 25.0 0.00000000 0.00000000 0.00000000 0.000000000000000001" Properties=id:I:1:pos:R:2:radius:R:1:color:R:3
1 9.383526463164364 6.209348376100762 0.30852170991991923 0.7485102733475797 0.0661306140775646 1 
1
Time=12201 Lattice="20.0 0.00000000 0.00000000 0.00000000 25.0 0.00000000 0.00000000 0.00000000 0.000000000000000001" Properties=id:I:1:pos:R:2:radius:R:1:color:R:3
1 9.482930572441054 6.035800621680251 0.30852170991991923 0.7485102730034594 0.06613061388046049 1 
1
Time=12401 Lattice="20.0 0.00000000 0.00000000 0.00000000 25.0 0.00000000 0.00000000 0.00000000 0.000000000000000001" Properties=id:I:1:pos:R:2:radius:R:1:color:R:3
1 9.582334681599379 5.862252867194713 0.30852170991991923 0.7485102727905664 0.06613061375852025 1 
1
Time=12601 Lattice="20.0 0.00000000 0.00000000 0.00000000 25.0 0.00000000 0.00000000 0.00000000 0.000000000000000001" Properties=id:I:1:pos:R:2:radius:R:1:color:R:3
1 9.681738790685467 5.688705112670552 0.30852170991991923 0.7485102726185062 0.06613061365996825 1 
1
Time=12801 Lattice="20.0 0.00000000 0.00000000 0.00000000 25.0 0.00000000 0.00000000 0.00000000 0.000000000000000001" Properties=id:I:1:pos:R:2:radius:R:1:color:R:3
1 9.7811428997005 5.515157358110863 0.30852170991991923 0.748510272446446 0.06613061356141614 1 
1
Time=13001 Lattice="20.0 0.00000000 0.00000000 0.00000000 25.0 0.00000000 0.00000000 0.00000000 0.000000000000000001" Properties=id:I:1:pos:R:2:radius:R:1:color:R:3
1 9.880547008644479 5.34160960351452 0.30852170991991923 0.7485102722655755 0.06613061345781779 1 
1
Time=13201 Lattice="20.0 0.00000000 0.00000000 0.00000000 25.0 0.00000000 0.00000000 0.00000000 0.000000000000000001" Properties=id:I:1:pos:R:2:radius:R:1:color:R:3
1 9.979951117502509 5.168061848857754 0.30852170991991923 0.748510271968938 0.06613061328791076 1 
