5
Time=1 Lattice="20.0 0.00000000 0.00000000 0.00000000 25.0 0.00000000 0.00000000 0.00000000 0.000000000000000001" Properties=id:I:1:pos:R:2:radius:R:1:color:R:3
1 4.845140693653448 8.499411513698506 0.32527889892490364 0.9158795356430836 0.22243160872805934 1 
2 12.167834033095357 16.093436287092164 0.2502504348441198 0.4003523827207055 0.01003025361706339 1 
3 14.53841772359817 6.409602800696768 0.30431185950608175 0.021705499476182832 0.354279820310733 1 
4 4.994380421677808 13.582142944459319 0.2893081631123363 0.7552051528993572 0.0700345014613199 1 
5 13.29020776219759 9.535946699069768 0.34414701283434396 0.20132887604022215 0.09900678345812008 1 
5
Time=201 Lattice="20.0 0.00000000 0.00000000 0.00000000 25.0 0.00000000 0.00000000 0.00000000 0.000000000000000001" Properties=id:I:1:pos:R:2:radius:R:1:color:R:3
1 4.963866129034661 8.420171192229375 0.32527889892490364 0.9158795356634488 0.22243160875857254 1 
2 12.139386596460058 15.95355955242139 0.2502504348441198 0.4003523827829307 0.01003025360440829 1 
3 14.40187404220627 6.368002552802191 0.30431185950608175 0.021705499477348067 0.3542798203069084 1 
4 5.067236478036424 13.459396243465635 0.2893081631123363 0.7552051528907935 0.07003450145623696 1 
5 13.204943025199178 9.421471015286143 0.34414701283434396 0.20132887601318777 0.09900678347825603 1 
5
Time=401 Lattice="20.0 0.00000000 0.00000000 0.00000000 25.0 0.00000000 0.00000000 0.00000000 0.000000000000000001" Properties=id:I:1:pos:R:2:radius:R:1:color:R:3
1 5.262968349277666 8.220542898529144 0.32527889892490364 0.9158795356637919 0.22243160875908652 1 
2 12.067719632841385 15.601171357204539 0.2502504348441198 0.4003523827820321 0.010030253604591088 1 
3 14.057882730376708 6.2632000185517045 0.30431185950608175 0.02170549947769046 0.3542798203057846 1 
4 5.250781041550129 13.150163342555322 0.2893081631123363 0.7552051528927531 0.07003450145740009 1 
5 12.99013756196576 9.133075095122871 0.34414701283434396 0.20132887601325883 0.09900678347820313 1 
5
Time=601 Lattice="20.0 0.00000000 0.00000000 0.00000000 25.0 0.00000000 0.00000000 0.00000000 0.000000000000000001" Properties=id:I:1:pos:R:2:radius:R:1:color:R:3
1 5.682932325297341 7.9402484497606585 0.32527889892490364 0.9158795356637266 0.22243160875898854 1 
2 11.967093355421595 15.106389514912037 0.2502504348441198 0.4003523827802762 0.010030253604948192 1 
3 13.57489079900407 6.1160486903351465 0.30431185950608175 0.02170549947785344 0.3542798203052495 1 
4 5.508492617904943 12.715975062450909 0.2893081631123363 0.7552051528915544 0.07003450145668855 1 
5 12.688533126076594 8.728143639912322 0.34414701283434396 0.20132887601373678 0.09900678347784708 1 
5
Time=801 Lattice="20.0 0.00000000 0.00000000 0.00000000 25.0 0.00000000 0.00000000 0.00000000 0.000000000000000001" Properties=id:I:1:pos:R:2:radius:R:1:color:R:3
1 6.183879915814467 7.605903513613062 0.32527889892490364 0.9158795356629168 0.22243160875777523 1 
2 11.84706284305745 14.516196579610442 0.2502504348441198 0.4003523827803475 0.010030253604933648 1 
3 12.99876127819958 5.940521484369681 0.30431185950608175 0.0217054994915431 0.35427982026031624 1 
4 5.815899920900778 12.19806022887259 0.2893081631123363 0.755205152891764 0.07003450145681295 1 
5 12.32876889848326 8.245127361398017 0.34414701283434396 0.20132887598400884 0.09900678349998931 1 
5
Time=1001 Lattice="20.0 0.00000000 0.00000000 0.00000000 25.0 0.00000000 0.00000000 0.00000000 0.000000000000000001" Properties=id:I:1:pos:R:2:radius:R:1:color:R:3
1 6.739090707912192 7.235341961172189 0.32527889892490364 0.9158795356618081 0.22243160875611417 1 
2 11.714030491754867 13.862073287470654 0.2502504348441198 0.4003523827792312 0.010030253605160688 1 
3 12.360224765658542 5.745980974268988 0.30431185950608175 0.021705501040263864 0.3542798151769805 1 
4 6.156605925727556 11.62404428302566 0.2893081631123363 0.7552051528916816 0.07003450145676404 1 
5 11.930034608243574 7.709790222481915 0.34414701283434396 0.20132887271691874 0.09900678593341072 1 
5
Time=1201 Lattice="20.0 0.00000000 0.00000000 0.00000000 25.0 0.00000000 0.00000000 0.00000000 0.000000000000000001" Properties=id:I:1:pos:R:2:radius:R:1:color:R:3
1 7.330660645795635 6.840513406539497 0.32527889892490364 0.9158795356613019 0.22243160875535578 1 
2 11.572286237291104 13.165113356564575 0.2502504348441198 0.4003523827807541 0.010030253604850992 1 
3 11.679872380537994 5.538700353804233 0.30431185950608175 0.021705715849655194 0.35427911011420077 1 
4 6.519623779451717 11.012437696371181 0.2893081631123363 0.7552051528914049 0.07003450145659984 1 
5 11.505188331868784 7.139395622648658 0.34414701283434396 0.2013284542692345 0.09900709760546228 1 
5
Time=1401 Lattice="20.0 0.00000000 0.00000000 0.00000000 25.0 0.00000000 0.00000000 0.00000000 0.000000000000000001" Properties=id:I:1:pos:R:2:radius:R:1:color:R:3
1 7.946593087986646 6.429424707928454 0.32527889892490364 0.9158795356618086 0.2224316087561149 1 
2 11.424704558055623 12.439450666726493 0.2502504348441198 0.4003523827804971 0.010030253604903228 1 
3 10.971501257026532 5.322853627105677 0.30431185950608175 0.02173149684822001 0.35419451693109816 1 
4 6.897591723534879 10.375643440181177 0.2893081631123363 0.7552051528908086 0.0700345014562459 1 
5 11.062845633736437 6.545540476593747 0.34414701283434396 0.20128553498004903 0.09903906875127533 1 
5
Time=1601 Lattice="20.0 0.00000000 0.00000000 0.00000000 25.0 0.00000000 0.00000000 0.00000000 0.000000000000000001" Properties=id:I:1:pos:R:2:radius:R:1:color:R:3
1 8.57884966526808 6.0074408736169875 0.32527889892490364 0.9158795350918703 0.22243160790217875 1 
2 11.273211502931387 11.69455564694587 0.2502504348441198 0.4003523827808223 0.010030253604837114 1 
3 10.64756656188316 5.357632549848047 0.30431185950608175 0.11365773131658191 0.18260489696822735 1 
4 7.285576999788433 9.721972145374188 0.2893081631123363 0.7552051528917094 0.07003450145678053 1 
5 10.614205089198386 5.979086394162719 0.34414701283434396 0.06668253189720874 0.2505286151940739 1 
4
Time=1801 Lattice="20.0 0.00000000 0.00000000 0.00000000 25.0 0.00000000 0.00000000 0.00000000 0.000000000000000001" Properties=id:I:1:pos:R:2:radius:R:1:color:R:3
1 9.221983620203881 5.578141325562608 0.32527889892490364 0.9156863289997936 0.22214234600667315 1 
2 11.119097624081238 10.936773973451574 0.2502504348441198 0.40035238278060015 0.0100302536048823 1 
3 7.680274405629296 9.056992363606918 0.2893081631123363 0.7552051528922528 0.0700345014571031 1 
4 10.213770513832566 5.926176935365708 0.34414701283434396 0.0318889103757487 0.3242956808419436 1 
4
Time=2001 Lattice="20.0 0.00000000 0.00000000 0.00000000 25.0 0.00000000 0.00000000 0.00000000 0.000000000000000001" Properties=id:I:1:pos:R:2:radius:R:1:color:R:3
1 9.681421656575248 5.073168644343612 0.32527889892490364 0.642130289853808 0.02062647058262329 1 
2 10.96322765806308 10.17035757684035 0.2502504348441198 0.4003523827803336 0.010030253604936479 1 
3 8.0794692847307 8.384435311903378 0.2893081631123363 0.7552051528918692 0.0700345014568754 1 
4 10.070822012696924 5.741678228205996 0.34414701283434396 0.9162295591908268 0.2229567650062359 1 
3
Time=2201 Lattice="20.0 0.00000000 0.00000000 0.00000000 25.0 0.00000000 0.00000000 0.00000000 0.000000000000000001" Properties=id:I:1:pos:R:2:radius:R:1:color:R:3
1 10.80618102300516 9.39815547007209 0.2502504348441198 0.40035238277996393 0.010030253605011696 1 
2 8.481677703047026 7.706801098249776 0.2893081631123363 0.755205152891077 0.07003450145640527 1 
3 10.211163983375457 5.510725614681464 0.34414701283434396 0.5824230537659372 0.006840350182724886 1 
3
Time=2401 Lattice="20.0 0.00000000 0.00000000 0.00000000 25.0 0.00000000 0.00000000 0.00000000 0.000000000000000001" Properties=id:I:1:pos:R:2:radius:R:1:color:R:3
1 10.648345958959993 8.622076638877553 0.2502504348441198 0.40035238278642027 0.010030253603698636 1 
2 8.885905348161698 7.025764924056434 0.2893081631123363 0.7552051528754531 0.07003450144713164 1 
3 10.167743822843107 5.135618555079279 0.34414701283434396 0.32896822570378453 0.030161589287243995 1 
2
Time=2601 Lattice="20.0 0.00000000 0.00000000 0.00000000 25.0 0.00000000 0.00000000 0.00000000 0.000000000000000001" Properties=id:I:1:pos:R:2:radius:R:1:color:R:3
1 10.489982607437954 7.843400202935491 0.2502504348441198 0.40035238436111076 0.010030253283445867 1 
2 9.291485978218892 6.342449260944332 0.2893081631123363 0.7552051501607169 0.07003449983580545 1 
2
Time=2801 Lattice="20.0 0.00000000 0.00000000 0.00000000 25.0 0.00000000 0.00000000 0.00000000 0.000000000000000001" Properties=id:I:1:pos:R:2:radius:R:1:color:R:3
1 10.331265358799012 7.062983379816454 0.2502504348441198 0.4003525114918783 0.010030227428238447 1 
2 9.697973096935984 5.657606080764385 0.2893081631123363 0.7552048087012395 0.07003429716340892 1 
1
Time=3001 Lattice="20.0 0.00000000 0.00000000 0.00000000 25.0 0.00000000 0.00000000 0.00000000 0.000000000000000001" Properties=id:I:1:pos:R:2:radius:R:1:color:R:3
1 10.172312765043184 6.281407456676956 0.2502504348441198 0.40035215345369024 0.010030300244307844 1 
1
Time=3201 Lattice="20.0 0.00000000 0.00000000 0.00000000 25.0 0.00000000 0.00000000 0.00000000 0.000000000000000001" Properties=id:I:1:pos:R:2:radius:R:1:color:R:3
1 10.021097057628987 5.498420404734242 0.2502504348441198 0.4221155235397729 0.0061032412269581005 1 
