100
Time=1 Lattice="20.0 0.00000000 0.00000000 0.00000000 25.0 0.00000000 0.00000000 0.00000000 0.000000000000000001" Properties=id:I:1:pos:R:2:radius:R:1:color:R:3
1 4.282478667703765 23.997600398534278 0.3142211580929336 0.6468920771347935 0.022064107149268486 1 
2 15.18322943651184 19.373649150082933 0.2822731590660505 0.32766362403729987 0.030638547044984865 1 
3 13.915649868682415 21.19369047917567 0.29714365660055947 0.38903621051710696 0.012468424177883408 1 
4 1.9994574537227603 15.770828758454197 0.2706584082142012 0.8057794693007596 0.10440056097847433 1 
5 16.60174608307287 23.538915858249442 0.2543441348230693 0.33006604523080657 0.02976340953037082 1 
6 19.430689655727864 23.689461845884733 0.2794658695521772 0.04048574553391093 0.30290446493521384 1 
7 8.955689205339532 11.43055277958633 0.3341102010909401 0.5873620093162056 0.007691276404495129 1 
8 5.714400445718217 17.223324677521383 0.3153535097788216 0.6687659355197668 0.029342949688270503 1 
9 10.823919164128476 23.146753240386374 0.2772477091933004 0.47111935518175346 8.347885169858182E-4 1 
10 2.4341183736664873 16.90945639683512 0.3075770703709805 0.7706425210720025 0.07958041697871554 1 
11 16.210694962571168 14.732869556808708 0.3449447163413675 0.2321262653914234 0.07781086903278306 1 
12 15.467928326101745 8.178684199253839 0.31444126188891786 0.06582808695774611 0.2520186500455538 1 
13 17.92565503292241 15.557929680921335 0.25864876053436586 0.19752392185329687 0.10186908918172466 1 
14 1.6554808481926668 14.224712482170828 0.2796492420002707 0.834337872560647 0.12822293377398786 1 
15 7.065884750348475 19.912277115408113 0.32826764460890023 0.603415561594254 0.010811670601040324 1 
16 18.51177916778523 21.428751785107625 0.25518439880933236 0.2679198301089113 0.0571244026328348 1 
17 13.187926864840836 18.148345707551115 0.3483337847222835 0.3904960764487595 0.01213845127240859 1 
18 3.519215802235335 9.395824699547566 0.28140668414505327 0.9157324820039919 0.2222114051894849 1 
19 11.418040486696901 13.181321823136042 0.28031313139120967 0.408844545591737 0.008379533449203225 1 
20 15.702342794970306 11.216429140009794 0.32689303425233995 0.15948334232244982 0.1338737842709019 1 
21 17.466049056764273 5.737520522268747 0.31230839942692235 0.002361951385797645 0.45145751786889365 1 
22 15.218565026859821 22.45587168087252 0.31842049334804534 0.3543365858026021 0.0216882086291858 1 
23 18.37746033379741 16.516103573431167 0.25838136886521973 0.20308641640441427 0.09770368647422689 1 
24 19.1873915224109 15.539216892447445 0.34016648979761543 0.16997036218040823 0.12439323999604446 1 
25 13.009017937505543 22.99341754116261 0.28104205946357186 0.4149435589276993 0.007287708868436882 1 
26 15.829503725996556 6.304724355237693 0.30703128770534416 0.011736216626167584 0.3923037705141389 1 
27 11.652589604442962 23.71438468023319 0.2586274324937114 0.45709999397480905 0.00184381015284113 1 
28 8.51545981015174 12.971657064572682 0.2528826731613335 0.6033105117445796 0.010789474599050497 1 
29 9.443976363252437 7.528652482643965 0.27988525457490093 0.1410186322725704 0.1519592299391579 1 
30 13.271074133402552 7.567254382053236 0.2549555525496165 0.4165860278404169 0.007006988641258427 1 
31 4.5840597522623705 5.467956633965769 0.3007189443931629 0.7745548456229023 0.08212485507632267 1 
32 12.695836424490542 7.915501953419402 0.30164408074427396 0.015945463702720042 0.3747354563732207 1 
33 4.912617824531747 6.794948668479639 0.301427893140855 0.9729197619184213 0.33768272184692216 1 
34 10.847090500820805 24.678951345117234 0.3150991647526792 0.4758228383560607 5.848772265272806E-4 1 
35 18.233422341204754 8.68846197201517 0.30964884808670584 0.04485742792935277 0.29300908452563507 1 
36 17.798264311908266 24.29254020266722 0.2515496997447881 0.310626399218473 0.037249916988620235 1 
37 6.168169276912534 22.097804530111116 0.3163839214078764 0.6119850020634542 0.012701981008697127 1 
38 12.728436750443686 15.130358404165591 0.3118243313612074 0.36640885445301197 0.018176997403150708 1 
39 7.858293743326872 17.371488805418654 0.28586842957415126 0.585403530442377 0.007347752478507441 1 
40 7.9496183934414635 18.348968132659024 0.31944724523310636 0.5830050329426397 0.006937970934496607 1 
41 3.5184816758513757 21.307682161057105 0.3095286825614496 0.6880442506245994 0.03670812676344859 1 
42 4.153790566483076 12.772084790750675 0.3327638044199367 0.8039976279535597 0.10302967088381898 1 
43 6.564650703532403 7.423853648618552 0.25890965401097077 0.9122878224312518 0.2171241412299441 1 
44 1.5911209284410706 5.6152729236444845 0.2962302824783801 0.9980376948252938 0.4557455704690768 1 
45 12.416957193488784 19.4630249393374 0.27028190601354907 0.4143420504171067 0.007391924880179701 1 
46 5.08204593455943 15.083773956764867 0.2512488900125131 0.8277888254711476 0.12243611680108296 1 
47 6.115540396863752 19.30214370062829 0.32679481182260395 0.6737261371282129 0.031151165855657303 1 
48 8.660143696537887 9.063705399939519 0.29227997072810724 0.66624792838699 0.028447642030034748 1 
49 4.499934453421692 23.012059926474596 0.26372064788792804 0.6478174652480563 0.022349503331526244 1 
50 12.993573648993713 20.847565476547306 0.2945154587413146 0.39486997358315234 0.011177253449071889 1 
51 13.886948498663557 18.839790805831345 0.29378533510577204 0.29334709287412897 0.044703859036312354 1 
52 9.679307538557897 8.50788122333934 0.2568113306641144 0.5598097350448675 0.0035900931751434717 1 
53 5.202390313052825 5.71720608316308 0.25712284475088426 0.9980904295402484 0.5436568894953692 1 
54 1.5790773499450028 22.18194097091098 0.3010747708450654 0.7220898664050857 0.05203114925234903 1 
55 5.194186004730752 19.111445531229645 0.3324005753840281 0.619797126913052 0.014563445563297028 1 
56 5.108590487871587 14.391979893499563 0.276669067508774 0.6765966838735578 0.03222482831507323 1 
57 19.563535427245476 8.359682016333586 0.27958366982464755 0.027758082068392975 0.3357210575019508 1 
58 1.293070468517197 12.853591024226683 0.31698363967152354 0.873103806184027 0.16714334945656872 1 
59 18.002016775162044 19.283047797799284 0.31214124076382666 0.25336288193733336 0.06506307124625277 1 
60 14.562273393637627 6.543011955546237 0.34302814973543605 0.025267978717170236 0.3430620888098772 1 
61 8.266316615159566 24.048642723668767 0.3478131159075921 0.5478423528354687 0.0022941538667980432 1 
62 11.565262159327553 20.9006811809698 0.2652210681360276 0.44797119195257784 0.0027143646422465584 1 
63 10.768266804899417 10.375283325764466 0.2569810727898292 0.4205034255225149 0.006360156950084017 1 
64 8.083844202593164 21.730772466399237 0.28548950335454104 0.5597436507583216 0.0035821355006774858 1 
65 5.7350817161464125 11.541294783779618 0.2999148231908156 0.7803236000333087 0.0859726104901204 1 
66 7.535531361973395 12.954623758876885 0.28497617546860476 0.8796334854443495 0.1746103616748455 1 
67 12.01108170522198 16.533540507719344 0.3164443036419992 0.4100780747435098 0.008152414504080163 1 
68 2.0616440147619843 9.277465936724878 0.3122213427422648 0.9413570893112553 0.2650448559518292 1 
69 18.422459127639396 11.84560232317703 0.3407624287101417 0.11022992918246538 0.1868238644230789 1 
70 16.38338999477565 18.04820268648095 0.2783748876349915 0.2539364655086553 0.06473831205397046 1 
71 14.767159182300906 11.961657237089845 0.2609652671162471 0.2129695907118191 0.09059366865684731 1 
72 19.597726334597198 18.305080390991687 0.2620817807186756 0.20554319463925852 0.09590200473555127 1 
73 10.108480496213414 7.565632451942089 0.3175311916294926 0.9015989841636078 0.2021439006520795 1 
74 11.832358036037926 14.342125770736427 0.3210204838795011 0.39810061476566816 0.01049360035964264 1 
75 14.521376337122005 18.247346680693852 0.34123049093435776 0.40533557504521933 0.009043131580807107 1 
76 2.577427952695272 6.032132845488796 0.2700685741974901 0.7903931773199929 0.09297198798362888 1 
77 9.261914628707343 19.299384826440495 0.3120090513629573 0.5291648231540514 8.513116411174027E-4 1 
78 10.297753414221551 12.007911065585295 0.2896958228917923 0.4718902073534144 7.907857847914701E-4 1 
79 2.9486900421215423 20.30057590592797 0.2833325243260622 0.7106515746962475 0.04654006342567457 1 
80 17.938456410257217 9.685494548114749 0.27097697350449657 0.06563684575538897 0.2523537800920994 1 
81 6.94318067080567 13.2112185260147 0.25750264245177995 0.1981096138430748 0.10142479411531058 1 
82 1.2017218306084636 6.597968345367693 0.33567264543423414 0.9932460460864321 0.4180955555534299 1 
83 1.2653429343167146 11.10380587176707 0.32681857454023877 0.27808754903150845 0.05194323562169395 1 
84 19.356960353373132 22.97993852193288 0.317806796447719 0.3410328089712986 0.025943640295329085 1 
85 3.092673367018765 6.425924375750553 0.26247026566016846 0.9939203779816501 0.5777345496832897 1 
86 4.740771947122698 11.834799143560648 0.2852960609247205 0.8055975574689347 0.10426001861194123 1 
87 18.73836735878531 5.99539333382719 0.25109604444715933 0.0031413423504220717 0.4440404224581751 1 
88 3.0584632384386374 15.957785926258525 0.2712450603008171 0.7721082634827695 0.08052760168946554 1 
89 15.230297964847361 14.437958839393403 0.2504551351897242 0.24981857706820487 0.06709209337340316 1 
90 9.201550224001398 16.2620167319288 0.2808599573846165 0.5396474598157129 0.0015743998045832375 1 
91 2.3375012929413352 14.991670161728122 0.2771608753778435 0.8029622276177557 0.1022389050738029 1 
92 7.894522401696741 6.5570746666597755 0.3244605823169646 0.9082990869311925 0.21139671586907666 1 
93 1.9072190057007592 17.828646653688665 0.3064587046311513 0.7692991445588104 0.07871865607424183 1 
94 12.228921540177502 18.073215954199735 0.2842617480324368 0.38858275598504005 0.012571853771131847 1 
95 1.7734796919032814 11.480072431716527 0.2762435639279381 0.9830489495640273 0.6290880022507507 1 
96 10.041844342058264 17.978589421093865 0.2634821749147625 0.5021445392508723 4.599069749977591E-6 1 
97 17.004420925352033 9.178954804481407 0.25358522870108197 0.06899086102420604 0.24656140365101314 1 
98 17.008101091213234 17.464452991562318 0.25352251210527527 0.27566677204647755 0.05315035768622023 1 
99 3.331165582874189 13.79860160290839 0.26472159723328026 0.8047977392907399 0.10364367278513875 1 
100 7.183996726350923 12.231763343959836 0.32759219771367765 0.6028356438290897 0.010689433633140732 1 
100
Time=201 Lattice="20.0 0.00000000 0.00000000 0.00000000 25.0 0.00000000 0.00000000 0.00000000 0.000000000000000001" Properties=id:I:1:pos:R:2:radius:R:1:color:R:3
1 4.323821922918509 23.86307718760221 0.3142211580929336 0.6468787444166852 0.022060009584280504 1 
2 15.134063245744912 19.23974525677953 0.2822731590660505 0.3276609964810424 0.030639511818375653 1 
3 13.884368589646426 21.056292398927756 0.29714365660055947 0.38897412399335707 0.012482559433041884 1 
4 2.0806812614598216 15.665535280128028 0.2706584082142012 0.8050206756042709 0.10381521047128256 1 
5 16.553231892226346 23.40466877260962 0.2543441348230693 0.330065916850206 0.029763455924532722 1 
6 19.3736509109807 23.63672983881126 0.2794658695521772 0.18255817911659672 0.11369611656853706 1 
7 8.980629244880538 11.290003676680264 0.3341102010909401 0.5873553567916786 0.007690095935701746 1 
8 5.76257981651172 17.088961303330414 0.3153535097788216 0.6687659354855239 0.02934294967599177 1 
9 10.81562588366802 23.00346786231486 0.2772477091933004 0.47109745603346403 8.36056037435251E-4 1 
10 2.512028637555953 16.788439423095095 0.3075770703709805 0.7706746861874496 0.07960112481439047 1 
11 16.135083996919885 14.613700668634777 0.3449447163413675 0.23212715797800293 0.07781030269906136 1 
12 15.343980826018422 8.107890432555491 0.31444126188891786 0.06582806261656371 0.252018692662706 1 
13 17.83896173304777 15.443823719970036 0.25864876053436586 0.19751297682481905 0.10187740479769608 1 
14 1.7509868107839344 14.118456822064099 0.2796492420002707 0.8341402403103 0.12804529871854686 1 
15 7.095363695262556 19.7730709141907 0.32826764460890023 0.6037682078178899 0.010886353649519176 1 
16 18.445524753858134 21.302319343775892 0.25518439880933236 0.26791982072320214 0.057124407551229606 1 
17 13.156032440349824 18.006014662778526 0.3483337847222835 0.3908458163564957 0.012060081369519304 1 
18 3.637905002577333 9.316517765521462 0.28140668414505327 0.9157327836643302 0.22221185664843934 1 
19 11.391987569730965 13.04081219946031 0.28031313139120967 0.4088455512802167 0.008379346977171409 1 
20 15.605151525361249 11.111913745788891 0.32689303425233995 0.15953669846143614 0.1338241675021945 1 
21 17.323938227534963 5.723658240293126 0.31230839942692235 0.0023619327099043685 0.4514577093270388 1 
22 15.176980980483052 22.31932304965956 0.31842049334804534 0.35433658735445295 0.021688208156590505 1 
23 18.293005935692467 16.40167746620474 0.25838136886521973 0.20307431695399897 0.09771261671826481 1 
24 19.093215593587903 15.432029323669548 0.34016648979761543 0.16999170210499526 0.12437449058877564 1 
25 12.984735941229086 22.852757314244784 0.28104205946357186 0.4149438489433105 0.007287658803413366 1 
26 15.690251267929789 6.274009145656788 0.30703128770534416 0.011736707147061876 0.3923015466573174 1 
27 11.640410760800801 23.57292286827963 0.2586274324937114 0.4571250129313267 0.0018416562137485437 1 
28 8.545717874949288 12.83169449263789 0.2528826731613335 0.6084989590554495 0.011913966719099944 1 
29 9.360071629186866 7.383055851908229 0.27988525457490093 0.3486589714045406 0.02345420675063309 1 
30 13.223274593525067 7.441270645439911 0.2549555525496165 0.2593640797878427 0.06171430105050396 1 
31 4.651607541071777 5.426068083966491 0.3007189443931629 0.9664491689036558 0.3199300890512557 1 
32 12.531466044112317 7.851910468544647 0.30164408074427396 0.051957734105289866 0.2780582779828591 1 
33 5.047383921203557 6.748714090248715 0.301427893140855 0.9729637205058956 0.3378108539845499 1 
34 10.84019124617312 24.536446620700744 0.3150991647526792 0.4758195010640308 5.850387991889749E-4 1 
35 18.10332596810192 8.62925404444656 0.30964884808670584 0.04497326461759876 0.2927545655816896 1 
36 17.74420350519942 24.16043811859621 0.2515496997447881 0.3106264606019636 0.03724989186834288 1 
37 6.200138796772589 21.95869051032579 0.3163839214078764 0.6119850006584721 0.012701980685820957 1 
38 12.69039147027845 14.993134574800505 0.3118243313612074 0.36641990076819897 0.018173934817529658 1 
39 7.883349778550245 17.227078937149134 0.28586842957415126 0.5855499796498203 0.007373162543984679 1 
40 7.972656641839579 18.21199082424297 0.31944724523310636 0.5828545089941568 0.0069126544522388755 1 
41 3.572076078955177 21.175647896759383 0.3095286825614496 0.6880651767495086 0.036716620960587365 1 
42 4.2400040409320265 12.65950351662761 0.3327638044199367 0.803994783474511 0.10302749261405375 1 
43 6.6823495391397705 7.343099006237081 0.25890965401097077 0.9122878521275706 0.21712418451194077 1 
44 1.7333691620270644 5.602506775283158 0.2962302824783801 0.9979552586158985 0.45482743734551234 1 
45 12.392505432324427 19.32240645383349 0.27028190601354907 0.41434140981747647 0.007392036272308666 1 
46 5.143755580912636 15.002336217249521 0.2512488900125131 0.784193100346921 0.08861905523565522 1 
47 6.1652195762149455 19.166530530725574 0.32679481182260395 0.6702665768017348 0.02988374541586103 1 
48 8.707541439132168 8.929243167853288 0.29227997072810724 0.6661986573016812 0.028430274178761206 1 
49 4.542728591085735 22.873783686815667 0.26372064788792804 0.6478308206900119 0.022353636615835226 1 
50 12.963205314863226 20.706317281165052 0.2945154587413146 0.39493480621531774 0.01116331453645264 1 
51 13.835655054465986 18.7222084816941 0.29378533510577204 0.3061725708843247 0.039097702628411835 1 
52 9.696143188524292 8.368269241129967 0.2568113306641144 0.5599078368241875 0.0036019227605262882 1 
53 5.418401369542077 5.725813578199743 0.25712284475088426 0.999999241503487 0.5008709167226212 1 
54 1.6424796417402054 22.054054668596205 0.3010747708450654 0.7220898662875337 0.0520311491940702 1 
55 5.228596331467966 18.97404436859054 0.3324005753840281 0.6230998921574424 0.015390449381333327 1 
56 5.177411822876453 14.219556898377999 0.276669067508774 0.692718591696971 0.038632961283170786 1 
57 19.428740426408044 8.312790649159567 0.27958366982464755 0.027758503298148995 0.3357198466253588 1 
58 1.399582235077588 12.758568766584974 0.31698363967152354 0.8731033435408024 0.16714283087385062 1 
59 17.931606727831017 19.15888186034278 0.31214124076382666 0.25336287229213356 0.06506307671569939 1 
60 14.426620082189736 6.498167463988359 0.34302814973543605 0.0252679434395372 0.3430621955235975 1 
61 8.279974666774967 23.906557484826084 0.3478131159075921 0.5478423528800589 0.0022941538710842813 1 
62 11.550408618954139 20.758715596029976 0.2652210681360276 0.44796898370803706 0.0027145956861135967 1 
63 10.745572059610655 10.23435862582577 0.2569810727898292 0.4205034312743835 0.006360156023793695 1 
64 8.100899841978011 21.589054917666935 0.28548950335454104 0.5597436557588678 0.0035821361024908627 1 
65 5.815801003339616 11.422083269227825 0.2999148231908156 0.7803491510010894 0.08598991131499178 1 
66 7.670351210283004 12.816308936724507 0.28497617546860476 0.8185232566465866 0.11458731861126742 1 
67 11.985410665412934 16.393127317235134 0.3164443036419992 0.4100778682455051 0.00815245225707667 1 
68 2.1876362736040225 9.210394254069344 0.3122213427422648 0.9413568641927389 0.265044433073076 1 
69 18.311187431977345 11.756196690867235 0.3407624287101417 0.11022992909433571 0.18682386453276256 1 
70 16.314267139638137 17.925631075572404 0.2783748876349915 0.2548547572191829 0.06422045717824909 1 
71 14.685217847106886 11.844797370582018 0.2609652671162471 0.21290987394489885 0.090635541941333 1 
72 19.513664706235655 18.18971835614884 0.2620817807186756 0.20554320347258326 0.09590199829891327 1 
73 10.216844531015184 7.429055953704279 0.3175311916294926 0.725107497876419 0.05353990727074165 1 
74 11.803233147617638 14.202223970522558 0.3210204838795011 0.39808782841969337 0.01049626223716521 1 
75 14.490656094492554 18.09731157049438 0.34123049093435776 0.3945097429890165 0.011254866340587866 1 
76 2.659683692975432 5.967465565330019 0.2700685741974901 0.9394591307362896 0.2615137898902651 1 
77 9.270240452534512 19.156891257049324 0.3120090513629573 0.5291651775483079 8.513323481914026E-4 1 
78 10.289729760809626 11.86540228703321 0.2896958228917923 0.47189632091593126 7.90441575945322E-4 1 
79 3.0089196608510025 20.170914666574202 0.2833325243260622 0.7106304034487807 0.0465302290747443 1 
80 17.815199357298102 9.615264811570443 0.27097697350449657 0.06549988248762673 0.25259416360616344 1 
81 6.916040982840434 13.113202217587203 0.25750264245177995 0.47413230603988155 6.69585936140249E-4 1 
82 1.3413770097968594 6.574811025094653 0.33567264543423414 0.9932844192731229 0.4183269830214538 1 
83 1.2545865685950142 10.9279908309054 0.32681857454023877 0.6362327400390093 0.018917220697452386 1 
84 19.282733271464988 22.77916583097999 0.317806796447719 0.31518766381025076 0.03540942713816597 1 
85 3.292638000340006 6.443071175982059 0.26247026566016846 0.9997842861954371 0.5146856144616903 1 
86 4.827827133952322 11.722058753776887 0.2852960609247205 0.8055752801839324 0.10424281669120494 1 
87 18.596569288723625 5.979423052679554 0.25109604444715933 0.0031413621560661964 0.44404024660641706 1 
88 3.1364726670450103 15.837542446983177 0.2712450603008171 0.7721511498198705 0.08055542481548011 1 
89 15.158107681488907 14.313042577215406 0.2504551351897242 0.249818565249748 0.06709210020339729 1 
90 9.212868809709137 16.119725870260513 0.2808599573846165 0.539647483731035 0.0015744017069375116 1 
91 2.4297793817823785 14.870768385025782 0.2771608753778435 0.803757154871388 0.10284563345666264 1 
92 8.011084936739975 6.47468315159739 0.3244605823169646 0.9082985506501587 0.21139595717145648 1 
93 1.983187904116127 17.709802209859266 0.3064587046311513 0.76929395804609 0.07871534070195402 1 
94 12.19668409043352 17.93210713326163 0.2842617480324368 0.38870090699707166 0.012544861657274642 1 
95 2.0142605179711395 11.487042978460567 0.2762435639279381 0.9938366972167421 0.42173559888391243 1 
96 10.042456583647176 17.835848138185156 0.2634821749147625 0.502144592259778 4.599297114216139E-6 1 
97 16.880898097513555 9.106322207746242 0.25358522870108197 0.06898982916012725 0.24656315849390859 1 
98 16.943037405072335 17.33517927362049 0.25352251210527527 0.27475784039886214 0.05360782988697532 1 
99 3.418145850859907 13.685493224171461 0.26472159723328026 0.8047977552212162 0.10364368503566446 1 
100 7.222105831804463 12.066550309500728 0.32759219771367765 0.62111543727114 0.01489068154216977 1 
100
Time=401 Lattice="20.0 0.00000000 0.00000000 0.00000000 25.0 0.00000000 0.00000000 0.00000000 0.000000000000000001" Properties=id:I:1:pos:R:2:radius:R:1:color:R:3
1 4.428011126943581 23.524002013773014 0.3142211580929336 0.6468422178967123 0.022048785917250235 1 
2 15.010194563085737 18.90239842713847 0.2822731590660505 0.3276559891590883 0.03064135042883498 1 
3 13.805476898310541 20.710168155456923 0.29714365660055947 0.3887931294317852 0.012523813978134624 1 
4 2.286516187409779 15.396966292917464 0.2706584082142012 0.8033604415619671 0.10254252743805609 1 
5 16.431010915895836 23.06646294842285 0.2543441348230693 0.3300655235450938 0.029763598057320817 1 
6 19.220363672425222 23.408886660120764 0.2794658695521772 0.23972966931719042 0.07308155935089783 1 
7 9.043448336242607 10.935915868580587 0.3341102010909401 0.587323784903084 0.007684494871225966 1 
8 5.8839569808937995 16.750462789986717 0.3153535097788216 0.6687659347743491 0.029342949420982145 1 
9 10.794699301425226 22.642447211036878 0.2772477091933004 0.471033380704548 8.397702474762236E-4 1 
10 2.7082740112065036 16.48372292341075 0.3075770703709805 0.7707842098332987 0.07967166202484505 1 
11 15.944639487755055 14.313545744828343 0.3449447163413675 0.23212395806072095 0.07781233301416107 1 
12 15.031722798700935 7.929541467962256 0.31444126188891786 0.06582793774853185 0.2520189112849384 1 
13 17.6205372783771 15.156366206792853 0.25864876053436586 0.1974783778771711 0.10190369488254186 1 
14 1.9913079726188558 13.850482306512486 0.2796492420002707 0.8334752074637879 0.12744894845540472 1 
15 7.1701295281285375 19.422731278665534 0.32826764460890023 0.6050207100278956 0.011153755803282595 1 
16 18.278611346683807 20.983800693176157 0.25518439880933236 0.2679197732123678 0.05712443244834425 1 
17 13.076225724782011 17.647654683251574 0.3483337847222835 0.3917674691211904 0.011854817436894538 1 
18 3.93691763258153 9.116721488924796 0.28140668414505327 0.9157337549603001 0.2222133102781756 1 
19 11.326354200807954 12.686827683854354 0.28031313139120967 0.40884861006696566 0.008378779838302819 1 
20 15.360395761708306 10.848534994468801 0.32689303425233995 0.15974798214648794 0.1336278335536209 1 
21 16.96592165449231 5.688735583233444 0.31230839942692235 0.002361876766075688 0.4514582828464264 1 
22 15.072219266921545 21.975319274157552 0.31842049334804534 0.3543365928891131 0.021688206471084326 1 
23 18.080223383867114 16.113421410101836 0.25838136886521973 0.20303031523989373 0.09774509781298735 1 
24 18.855999206847866 15.161972498137914 0.34016648979761543 0.17006468757787507 0.12431038127609273 1 
25 12.923563292528026 22.4983950391317 0.28104205946357186 0.41494485277838455 0.007287485514007541 1 
26 15.339457935769753 6.196630746671239 0.30703128770534416 0.01173807443880287 0.39229534807041994 1 
27 11.60976744622689 23.216580370679026 0.2586274324937114 0.45719877815612914 0.0018353129650077737 1 
28 8.633462533175695 12.479168274070119 0.2528826731613335 0.635780127659011 0.018789280114311357 1 
29 9.326169210883151 7.0291166212945235 0.27988525457490093 0.5196740833355861 3.8721949403214273E-4 1 
30 13.02073381228248 7.175463392269219 0.2549555525496165 0.16182251415164106 0.13171208536624096 1 
31 4.918689182332284 5.361082834158211 0.3007189443931629 0.992133559391567 0.4116565807737383 1 
32 12.200370826103928 7.640283646125488 0.30164408074427396 0.10002243855304999 0.1999700842600003 1 
33 5.38671127288489 6.6324903056702516 0.301427893140855 0.9730843283501006 0.33816298856709504 1 
34 10.822805607791349 24.17744482887234 0.3150991647526792 0.4758091045872127 5.855422806348431E-4 1 
35 17.775688162109475 8.479667142806951 0.30964884808670584 0.04537695045043122 0.2918705142987896 1 
36 17.608009607336747 23.827636720625236 0.2515496997447881 0.3106266609499742 0.03724980987897586 1 
37 6.280678860325129 21.608223803114377 0.3163839214078764 0.6119849946529924 0.01270197930571354 1 
38 12.594572083524742 14.647466817869425 0.3118243313612074 0.3664533611829625 0.018164659597625865 1 
39 7.946568759968927 16.86388045340038 0.28586842957415126 0.5859306078420062 0.007439414248456788 1 
40 8.030602806956301 17.866297610925333 0.31944724523310636 0.5824659979774307 0.0068475294824262845 1 
41 3.707112889232771 20.84306088484417 0.3095286825614496 0.6881309645872946 0.03674333230545496 1 
42 4.457204249808928 12.375865902863248 0.3327638044199367 0.80398640384496 0.10302107577680031 1 
43 6.978865581738699 7.139655758594535 0.25890965401097077 0.9122879889778515 0.21712438396956346 1 
44 2.0894677564165196 5.569098389334686 0.2962302824783801 0.9976517790174886 0.4515984830740946 1 
45 12.330903522252159 18.9681496058754 0.27028190601354907 0.4143386546677663 0.007392515367588226 1 
46 5.300626334165151 14.749246484684695 0.2512488900125131 0.7508992655267457 0.06750773584011976 1 
47 6.28600771228117 18.823684946783235 0.32679481182260395 0.6622689718520968 0.027063660971094916 1 
48 8.826824704744896 8.590586673937748 0.29227997072810724 0.6660030682649353 0.028361386942685474 1 
49 4.650504977717772 22.525601653081246 0.26372064788792804 0.6478675105864891 0.0223649936269803 1 
50 12.88679155848125 20.35045614996371 0.2945154587413146 0.39512571817667386 0.011122321012667247 1 
51 13.715877646004412 18.41680050607805 0.29378533510577204 0.3263340603278776 0.031128864827659974 1 
52 9.738839632105531 8.015230033241407 0.2568113306641144 0.5601721970603097 0.0036338985175002336 1 
53 5.865693634153665 5.706272150024983 0.25712284475088426 0.9985466718001323 0.4619051704688019 1 
54 1.8022075562833042 21.73187369017945 0.3010747708450654 0.7220898657781837 0.05203114894154931 1 
55 5.319146429818978 18.628746517009883 0.3324005753840281 0.6301953043233152 0.017248321875356576 1 
56 5.349427094365092 13.833137095357468 0.276669067508774 0.7111566740322518 0.04677504590806414 1 
57 19.08915922569332 8.194657960144143 0.27958366982464755 0.02775984826247152 0.33571598042744366 1 
58 1.667907753713587 12.51918322828811 0.31698363967152354 0.8730969691464251 0.16713568588124156 1 
59 17.754224322652643 18.846073519567124 0.31214124076382666 0.2533628362589163 0.06506309714884634 1 
60 14.084858773329954 6.385182258255725 0.34302814973543605 0.025274784064357403 0.34304150435590464 1 
61 8.314383077649774 23.54860545656295 0.3478131159075921 0.5478423528679447 0.002294153869919824 1 
62 11.512984872640542 20.40106516914628 0.2652210681360276 0.4479608004899105 0.0027154519650252618 1 
63 10.688397721034828 9.879330281393525 0.2569810727898292 0.4205034530914232 0.006360152510342387 1 
64 8.143867724669258 21.232029201635033 0.28548950335454104 0.5597436739556506 0.0035821382924654532 1 
65 6.01926618998208 11.121665101553027 0.2999148231908156 0.7804145335294019 0.08603419297544884 1 
66 7.88076833319896 12.483324190242902 0.28497617546860476 0.7197272836393366 0.050867590988494193 1 
67 11.920737987609886 16.039388154511492 0.3164443036419992 0.4100771881220082 0.00815257660128449 1 
68 2.5050439102157296 9.041422250118142 0.3122213427422648 0.94135614923492 0.265043090051552 1 
69 18.030863244476457 11.530959167036485 0.3407624287101417 0.11022992877152032 0.1868238649345294 1 
70 16.14115637576553 17.615971925841823 0.2783748876349915 0.25714135938748317 0.06294201679886868 1 
71 14.478689726105472 11.550471439896965 0.2609652671162471 0.2126735373100277 0.09080138827451045 1 
72 19.301890221862486 17.89908946313841 0.2620817807186756 0.20554323698409516 0.09590197387985766 1 
73 10.311525946209374 7.077549924428408 0.3175311916294926 0.565390294056687 0.00429433184279604 1 
74 11.729833059357068 13.849737168991402 0.3210204838795011 0.39804912178060337 0.01050432235790505 1 
75 14.403096703808972 17.728348985949147 0.34123049093435776 0.37638208715841986 0.015522331139306789 1 
76 2.9448775447164084 5.864610702896794 0.2700685741974901 0.9826287906972082 0.36934989326391476 1 
77 9.291216038755147 18.79791124195561 0.3120090513629573 0.5291665005245433 8.514096512424185E-4 1 
78 10.269527701614745 11.50638888860291 0.2896958228917923 0.4719253294973507 7.888093440135413E-4 1 
79 3.160637314466591 19.844218697518237 0.2833325243260622 0.7105638267650047 0.046499311072103144 1 
80 17.5045615999024 9.438758175843 0.27097697350449657 0.06502518522597284 0.25342970472439147 1 
81 6.952327725383748 12.820437787114757 0.25750264245177995 0.6056946886659383 0.011299035413464331 1 
82 1.6929850424060489 6.516857955013795 0.33567264543423414 0.9934080931704492 0.4190774840115476 1 
83 1.4305959445058973 10.636609155666074 0.32681857454023877 0.8207934477235159 0.11647481973453183 1 
84 19.105308347788192 22.368374778217003 0.317806796447719 0.29237653685153575 0.0451456303933771 1 
85 3.720745291942506 6.426854698683485 0.26247026566016846 0.9981932254960497 0.4575322467059742 1 
86 5.04701671571361 11.438135407665214 0.2852960609247205 0.8055124647728422 0.10419432309727694 1 
87 18.239340872363282 5.939189261304744 0.25109604444715933 0.003141421354059426 0.4440397209984109 1 
88 3.333085594065343 15.534624302224714 0.2712450603008171 0.7722908764712986 0.08064611771143454 1 
89 14.97620505693937 13.99827882913347 0.2504551351897242 0.24982483904708636 0.06708847457917716 1 