10
Time=1 Lattice="20.0 0.00000000 0.00000000 0.00000000 25.0 0.00000000 0.00000000 0.00000000 0.000000000000000001" Properties=id:I:1:pos:R:2:radius:R:1:color:R:3
1 2.466678323172998 20.906634841809495 0.3108986061260275 0.7162805106491049 0.04919767002225639 1 
2 2.7361814782574574 6.3563465509765305 0.260112971645896 0.9917243282329735 0.4094064846480119 1 
3 17.085455810223372 6.2929944356464596 0.30836571478481123 0.007907638600376854 0.4114273865568896 1 
4 5.35520695796948 9.44821196732514 0.2770403669437302 0.8647040513504968 0.15796059447991345 1 
5 15.24941534035524 15.283290704116142 0.27255197284791227 0.26931425555451544 0.05639647509331874 1 
6 6.844644618155778 16.65942759461907 0.3427325241141813 0.6343892744264911 0.01839900029264757 1 
7 9.58865090445124 13.386080415611534 0.34637898604019324 0.3140041993745639 0.03588195235511149 1 
8 12.26839901916864 6.069269099456571 0.29362136699974717 0.04435046505707968 0.29412746344813145 1 
9 1.0659229637526628 13.842934680357722 0.3123152721759757 0.8572778027879202 0.15021067535581362 1 
10 10.394788055594491 13.27562738207064 0.25514017260989946 0.667907643788167 0.029036070216087506 1 
10
Time=201 Lattice="20.0 0.00000000 0.00000000 0.00000000 25.0 0.00000000 0.00000000 0.00000000 0.000000000000000001" Properties=id:I:1:pos:R:2:radius:R:1:color:R:3
1 2.4975502411153174 20.842287238354302 0.3108986061260275 0.7162805107049167 0.04919767004903314 1 
2 2.8063702949104012 6.343415216743705 0.260112971645896 0.9917243282333481 0.4094064846500452 1 
3 17.015214460453695 6.280351565294491 0.30836571478481123 0.007907638613946444 0.41142738648149946 1 
4 5.407264878073186 9.399389202730235 0.2770403669437302 0.8647040513406058 0.15796059446936705 1 
5 15.216487216833862 15.219970659348768 0.27255197284791227 0.26931425559242644 0.05639647507360401 1 
6 6.8638273667034175 16.590683783652967 0.3427325241141813 0.634389274432003 0.018399000294185675 1 
7 9.565129909510809 13.31867306363091 0.34637898604019324 0.35460697526229257 0.021605948659872642 1 
8 12.2033595248182 6.039882817569185 0.29362136699974717 0.04435046504348028 0.2941274634782305 1 
9 1.1169208598345342 13.793005690947515 0.3123152721759757 0.8572778027589725 0.15021067532624627 1 
10 10.418392115236676 13.200557919970768 0.25514017260989946 0.6334694801945656 0.018143280780902216 1 
10
Time=401 Lattice="20.0 0.00000000 0.00000000 0.00000000 25.0 0.00000000 0.00000000 0.00000000 0.000000000000000001" Properties=id:I:1:pos:R:2:radius:R:1:color:R:3
1 2.5753251439405993 20.680177821784834 0.3108986061260275 0.7162805107007594 0.049197670047038566 1 
2 2.9831953436438403 6.310837608017261 0.260112971645896 0.9917243282335981 0.4094064846514024 1 
3 16.838257066264735 6.248500676895139 0.30836571478481123 0.007907638613667334 0.41142738648305016 1 
4 5.538413182008768 9.276391150611046 0.2770403669437302 0.8647040513395725 0.15796059446826533 1 
5 15.133532163250639 15.060449947420432 0.27255197284791227 0.2693142555913325 0.05639647507417289 1 
6 6.912154017706065 16.41749910403929 0.3427325241141813 0.6343892744296952 0.018399000293541634 1 
7 9.525927751205936 13.14621776323133 0.34637898604019324 0.4164583680585635 0.0070286055636072375 1 
8 12.039507043663203 5.965850643007555 0.29362136699974717 0.04435046504341539 0.29412746347837415 1 
9 1.2453986699756456 13.667220752455641 0.3123152721759757 0.857277802759124 0.15021067532640098 1 
10 10.457790546012223 13.014126270363775 0.25514017260989946 0.5790163313747225 0.006283057434647021 1 
10
Time=601 Lattice="20.0 0.00000000 0.00000000 0.00000000 25.0 0.00000000 0.00000000 0.00000000 0.000000000000000001" Properties=id:I:1:pos:R:2:radius:R:1:color:R:3
1 2.6845274674760398 20.452562944576076 0.3108986061260275 0.7162805107017328 0.04919767004750558 1 
2 3.2314721717661175 6.265095981362272 0.260112971645896 0.991724328233624 0.40940648465154256 1 
3 16.589794414298883 6.203779425006498 0.30836571478481123 0.00790763861359911 0.41142738648342914 1 
4 5.72255612526254 9.103691827386884 0.2770403669437302 0.8647040513397168 0.1579605944684192 1 
5 15.017056484448332 14.836469823214776 0.27255197284791227 0.2693142555929731 0.056396475073319685 1 
6 6.98000858758039 16.174333651847995 0.3427325241141813 0.6343892744290889 0.01839900029337249 1 
7 9.496487417984 12.900770272738662 0.34637898604019324 0.45926859857784424 0.0016618086698680368 1 
8 11.809444761241975 5.861903416012278 0.29362136699974717 0.044350465044410536 0.2941274634761716 1 
9 1.4257920215642328 13.490608412867832 0.3123152721759757 0.8572778027585519 0.15021067532581667 1 
10 10.487475738667579 12.755787258717664 0.25514017260989946 0.5395191608717219 0.0015642108315305214 1 
10
Time=801 Lattice="20.0 0.00000000 0.00000000 0.00000000 25.0 0.00000000 0.00000000 0.00000000 0.000000000000000001" Properties=id:I:1:pos:R:2:radius:R:1:color:R:3
1 2.814787784974226 20.181056027756423 0.3108986061260275 0.7162805107002816 0.049197670046809416 1 
2 3.5276253799721062 6.210533783250853 0.260112971645896 0.9917243282335912 0.4094064846513646 1 
3 16.29341954897095 6.150434365293323 0.30836571478481123 0.007907638613529444 0.41142738648381616 1 
4 5.942208212109753 8.897690087255173 0.2770403669437302 0.8647040513397884 0.15796059446849553 1 
5 14.878120256624724 14.569298565792797 0.27255197284791227 0.2693142555942182 0.05639647507267226 1 
6 7.060947871007782 15.884277470062717 0.3427325241141813 0.6343892744307091 0.01839900029382463 1 
7 9.481077047472388 12.605546152209465 0.34637898604019324 0.48577461219914714 2.024026249072275E-4 1 
8 11.535018494638916 5.737911559857923 0.29362136699974717 0.044350465046022414 0.2941274634726041 1 
9 1.640971465477996 13.279939091155098 0.3123152721759757 0.8572778027599303 0.15021067532722449 1 
10 10.503133647684788 12.450248176108401 0.25514017260989946 0.5141935251022149 2.014967557698033E-4 1 
10
Time=1001 Lattice="20.0 0.00000000 0.00000000 0.00000000 25.0 0.00000000 0.00000000 0.00000000 0.000000000000000001" Properties=id:I:1:pos:R:2:radius:R:1:color:R:3
1 2.959158045309069 19.880139178966758 0.3108986061260275 0.7162805107020831 0.049197670047673614 1 
2 3.855858233913094 6.150061347001396 0.260112971645896 0.9917243282336557 0.4094064846517149 1 
3 15.964941027765398 6.091310909229469 0.30836571478481123 0.007907638614173096 0.4114273864802401 1 
4 6.185653257924596 8.669374008932452 0.2770403669437302 0.8647040513396758 0.15796059446837546 1 
5 14.724134301684852 14.273187019860186 0.27255197284791227 0.26931425559296857 0.05639647507332207 1 
6 7.150654587866428 15.56280207924241 0.3427325241141813 0.6343892744297803 0.01839900029356545 1 
7 9.477680962475167 12.276755361476354 0.34637898604019324 0.5023061883268506 5.318532885711935E-6 1 
8 11.23086606884276 5.600488767588763 0.29362136699974717 0.04435046504572571 0.2941274634732608 1 
9 1.8794593866897409 13.046449833611092 0.3123152721759757 0.8572778027598633 0.15021067532715615 1 
10 10.506750846171956 12.113400163706812 0.25514017260989946 0.49803016119729104 3.880279965229327E-6 1 
10
Time=1201 Lattice="20.0 0.00000000 0.00000000 0.00000000 25.0 0.00000000 0.00000000 0.00000000 0.000000000000000001" Properties=id:I:1:pos:R:2:radius:R:1:color:R:3
1 3.112982695611491 19.559516157803838 0.3108986061260275 0.716280510703434 0.04919767004832176 1 
2 4.205586106247 6.085628746150528 0.260112971645896 0.9917243282338722 0.4094064846528898 1 
3 15.614951400129275 6.02831562936609 0.30836571478481123 0.007907638613852297 0.41142738648202243 1 
4 6.44504081429157 8.426106172295256 0.2770403669437302 0.8647040513393853 0.15796059446806576 1 
5 14.560064252802823 13.957683986911784 0.27255197284791227 0.26931425559190225 0.05639647507387657 1 
6 7.246235937643266 15.220274196706761 0.3427325241141813 0.6343892744288468 0.01839900029330499 1 
7 9.483251771153723 11.925484713438498 0.34637898604019324 0.5125590623540819 1.5775493383285433E-4 1 
8 10.906795582106296 5.454066554902116 0.29362136699974717 0.04435046504573176 0.2941274634732474 1 
9 2.1335651907286213 12.797670041237682 0.3123152721759757 0.8572778027597683 0.15021067532705912 1 
10 10.501357599315963 11.755653660391921 0.25514017260989946 0.48785240349080783 1.4758588254287774E-4 1 
10
Time=1401 Lattice="20.0 0.00000000 0.00000000 0.00000000 25.0 0.00000000 0.00000000 0.00000000 0.000000000000000001" Properties=id:I:1:pos:R:2:radius:R:1:color:R:3
1 3.2731422751685537 19.225688984040424 0.3108986061260275 0.7162805107031305 0.049197670048176156 1 
2 4.569716750341671 6.018542630617178 0.260112971645896 0.9917243282336732 0.4094064846518093 1 
3 15.250548220914721 5.962726027718229 0.30836571478481123 0.007907638613901702 0.41142738648174815 1 
4 6.715110675581468 8.172819885871847 0.2770403669437302 0.8647040513402717 0.15796059446901095 1 
5 14.389237340502106 13.6291876567917 0.27255197284791227 0.2693142555936011 0.05639647507299311 1 
6 7.345753594686915 14.863640058124107 0.3427325241141813 0.6343892744293809 0.018399000293453982 1 
7 9.494844041198341 11.559294787313634 0.34637898604019324 0.5183666602371818 3.374480794743895E-4 1 
8 10.569378966495956 5.30161426604277 0.29362136699974717 0.04435046504493151 0.29412746347501856 1 
9 2.3981357823588643 12.53864480132615 0.3123152721759757 0.857277802759087 0.15021067532636329 1 
10 10.489889549177411 11.383842880428839 0.25514017260989946 0.4820244356894522 3.232253869334123E-4 1 
10
Time=1601 Lattice="20.0 0.00000000 0.00000000 0.00000000 25.0 0.00000000 0.00000000 0.00000000 0.000000000000000001" Properties=id:I:1:pos:R:2:radius:R:1:color:R:3
1 3.437546584295428 18.88301434651497 0.3108986061260275 0.7162805107007844 0.04919767004705056 1 
2 4.943497994897492 5.949678523288529 0.260112971645896 0.9917243282336212 0.4094064846515275 1 
3 14.876487218205149 5.895398096572309 0.30836571478481123 0.007907638613568857 0.4114273864835974 1 
4 6.992338232523491 7.912820721001343 0.2770403669437302 0.8647040513398114 0.15796059446852012 1 
5 14.213882980965066 13.291985146935598 0.27255197284791227 0.26931425559352373 0.05639647507303336 1 
6 7.447908780767779 14.497553999913151 0.3427325241141813 0.6343892744295561 0.018399000293502887 1 
7 9.509687310887218 11.18339688111644 0.34637898604019324 0.5204829890531036 4.1972901299391907E-4 1 
8 10.223019755696418 5.1451215149125815 0.29362136699974717 0.044350465045666865 0.2941274634733911 1 
9 2.6697183218020144 12.272754582759172 0.3123152721759757 0.8572778027593995 0.15021067532668225 1 
10 10.475110712227991 11.002397546392599 0.25514017260989946 0.4798672267416403 4.05492983632294E-4 1 
9
Time=1801 Lattice="20.0 0.00000000 0.00000000 0.00000000 25.0 0.00000000 0.00000000 0.00000000 0.000000000000000001" Properties=id:I:1:pos:R:2:radius:R:1:color:R:3
1 3.6047950813206846 18.534411451618727 0.3108986061260275 0.716280510701151 0.049197670047226416 1 
2 5.323745639864849 5.8796230696877805 0.260112971645896 0.9917243282333637 0.40940648465012963 1 
3 14.49595497527787 5.8269053949407015 0.30836571478481123 0.00790763861373206 0.4114273864826905 1 
4 7.274361814987609 7.648323581095048 0.2770403669437302 0.864704051340668 0.1579605944694334 1 
5 14.035494998100974 12.94894904729654 0.27255197284791227 0.26931425559519173 0.056396475072166 1 
6 7.551831247436176 14.125134667701762 0.3427325241141813 0.6343892744291942 0.018399000293401913 1 
7 9.525038994451613 10.801485650511728 0.34637898604019324 0.5191241050296973 3.6586525056847563E-4 1 
8 2.94599922819281 12.002264474165312 0.3123152721759757 0.8572778027595995 0.15021067532688664 1 
9 10.459756793201475 10.61408660670481 0.25514017260989946 0.48117718108964935 3.544241281944749E-4 1 
9
Time=2001 Lattice="20.0 0.00000000 0.00000000 0.00000000 25.0 0.00000000 0.00000000 0.00000000 0.000000000000000001" Properties=id:I:1:pos:R:2:radius:R:1:color:R:3
1 3.7739493310367895 18.18183631830674 0.3108986061260275 0.7162805107012741 0.04919767004728548 1 
2 5.7083261068596105 5.808769352591947 0.260112971645896 0.9917243282306143 0.40940648463520624 1 
3 14.111086667398304 5.757632236965547 0.30836571478481123 0.007907638613665335 0.4114273864830613 1 
4 7.559598982096654 7.380812565761051 0.2770403669437302 0.8647040513551238 0.15796059448484706 1 
5 13.85507433103098 12.602004141409402 0.27255197284791227 0.26931425559554556 0.05639647507198198 1 
6 7.656937883313414 13.748471715027764 0.3427325241141813 0.6343892744290682 0.01839900029336672 1 
7 9.538220269218622 10.416289188018377 0.34637898604019324 0.5146572516337315 2.1488119938439798E-4 1 
8 3.225428282938729 11.728692201836118 0.3123152721759757 0.8572778027592678 0.15021067532654786 1 
9 10.44649493158888 10.2205282447799 0.25514017260989946 0.48554399120460595 2.0901987960258994E-4 1 
9
Time=2201 Lattice="20.0 0.00000000 0.00000000 0.00000000 25.0 0.00000000 0.00000000 0.00000000 0.000000000000000001" Properties=id:I:1:pos:R:2:radius:R:1:color:R:3
1 3.9443805334189115 17.82659958023514 0.3108986061260275 0.7162805107029779 0.04919767004810294 1 
2 6.095809788189532 5.737380757706834 0.260112971645896 0.9917243281938679 0.409406484435754 1 
3 13.723312972199858 5.687836132957627 0.30836571478481123 0.007907638613622148 0.41142738648330124 1 
4 7.846989416839078 7.11128209837967 0.2770403669437302 0.8647040515357332 0.15796059467742418 1 
5 13.673291660628356 12.252440133588225 0.27255197284791227 0.2693142555939053 0.05639647507283496 1 
6 7.762837973679913 13.36896531761349 0.3427325241141813 0.6343892744287354 0.01839900029327385 1 
7 9.547189267909499 10.029835139788865 0.34637898604019324 0.5084835333699617 7.197551891457987E-5 1 
8 3.5069667595703984 11.453054720722362 0.3123152721759757 0.857277802759294 0.1502106753265745 1 
9 10.437344752733795 9.82263925491811 0.25514017260989946 0.49149412923031627 7.235507280711762E-5 1 
9
Time=2401 Lattice="20.0 0.00000000 0.00000000 0.00000000 25.0 0.00000000 0.00000000 0.00000000 0.000000000000000001" Properties=id:I:1:pos:R:2:radius:R:1:color:R:3
1 4.115667359995668 17.469579429598898 0.3108986061260275 0.71628051070177 0.049197670047523456 1 
2 6.4852387722383495 5.665633766549999 0.260112971645896 0.9917243277621872 0.40940648209267316 1 
3 13.333592517541705 5.617689628116957 0.30836571478481123 0.007907638613672885 0.41142738648301913 1 
4 8.135822652761753 6.8403984944376655 0.2770403669437302 0.8647040537335056 0.15796059702082815 1 
5 13.49059637769457 11.901121192290773 0.27255197284791227 0.2693142555945806 0.05639647507248374 1 
6 7.869269719507584 12.98755366546427 0.3427325241141813 0.6343892744297875 0.018399000293567447 1 
7 9.551536459293049 9.643465855177846 0.34637898604019324 0.503163387950468 1.0007123467659085E-5 1 
8 3.78991865774084 11.176033443129645 0.3123152721759757 0.8572778027602239 0.1502106753275244 1 
9 10.432675691345516 9.421104089078485 0.25514017260989946 0.49646045004949857 1.2528570817182949E-5 1 
9
Time=2601 Lattice="20.0 0.00000000 0.00000000 0.00000000 25.0 0.00000000 0.00000000 0.00000000 0.000000000000000001" Properties=id:I:1:pos:R:2:radius:R:1:color:R:3
1 4.287527498943877 17.111364300493914 0.3108986061260275 0.7162805107017478 0.0491976700475128 1 
2 6.875971200529133 5.593646625394167 0.260112971645896 0.9917243230104734 0.4094064563012816 1 
3 12.942567633566052 5.547308336632789 0.30836571478481123 0.007907638613666446 0.411427386483055 1 
4 8.425622648871594 6.568608225138259 0.2770403669437302 0.8647040789719187 0.1579606239316232 1 
5 13.307289597263866 11.548626354985345 0.27255197284791227 0.269314255596447 0.056396475071513186 1 
6 7.97605770193549 12.604865394303708 0.3427325241141813 0.6343892744293533 0.018399000293446266 1 
7 9.552880796676758 9.257834478531182 0.34637898604019324 0.5009519284096356 9.061685182221169E-7 1 
8 4.073817621294326 10.898084950473518 0.3123152721759757 0.8572778027600487 0.1502106753273455 1 
9 10.430803059596213 9.016704631508086 0.25514017260989946 0.49828148948840384 2.953287100371238E-6 1 
9
Time=2801 Lattice="20.0 0.00000000 0.00000000 0.00000000 25.0 0.00000000 0.00000000 0.00000000 0.000000000000000001" Properties=id:I:1:pos:R:2:radius:R:1:color:R:3
1 4.45977178677302 16.752348474139165 0.3108986061260275 0.7162805107021182 0.04919767004769049 1 
2 7.2675769006963264 5.521498511644906 0.260112971645896 0.9917242756389186 0.40940619917797466 1 
3 12.550668714621832 5.476769725978745 0.30836571478481123 0.007907638613836088 0.4114273864821127 1 
4 8.716070526468862 6.29621050262162 0.2770403669437302 0.8647043448532008 0.1579609074313323 1 
5 13.123573081948432 11.19534360666219 0.27255197284791227 0.26931425559714595 0.0563964750711497 1 
6 8.083084381272517 12.221321722512696 0.3427325241141813 0.6343892744280772 0.018399000293090217 1 
7 9.553932893995183 8.873139699743884 0.34637898604019324 0.5023106979683302 5.339353609523645E-6 1 
8 4.358351167535911 10.619515175866962 0.3123152721759757 0.857277802758478 0.15021067532574106 1 
9 10.428917757439915 8.610301589588634 0.25514017260989946 0.4965583515815326 1.1845084142370066E-5 1 
9
Time=3001 Lattice="20.0 0.00000000 0.00000000 0.00000000 25.0 0.00000000 0.00000000 0.00000000 0.000000000000000001" Properties=id:I:1:pos:R:2:radius:R:1:color:R:3
1 4.632273474179642 16.39279613929925 0.3108986061260275 0.7162805107033973 0.04919767004830411 1 
2 7.65976666977088 5.449242027069479 0.260112971645896 0.9917238680388986 0.40940398683791934 1 
3 12.158184147136831 5.406125703362101 0.30836571478481123 0.007907638613685097 0.4114273864829514 1 
4 9.006953576159955 6.023406260720063 0.2770403669437302 0.8647068146307609 0.15796354088798698 1 
5 12.939582023110727 10.841532917291131 0.27255197284791227 0.26931425559615424 0.05639647507166545 1 
6 8.190270999857557 11.83720488814907 0.3427325241141813 0.6343892744287296 0.01839900029327224 1 
7 9.557072457797899 8.489519813941296 0.34637898604019324 0.5061351753417939 3.764179337917284E-5 1 
8 4.643309916931379 10.340529110284734 0.3123152721759757 0.85727780275814 0.1502106753253959 1 
9 10.424500923365954 8.202584673262516 0.25514017260989946 0.4923379579579068 5.871033515825186E-5 1 
9
Time=3201 Lattice="20.0 0.00000000 0.00000000 0.00000000 25.0 0.00000000 0.00000000 0.00000000 0.000000000000000001" Properties=id:I:1:pos:R:2:radius:R:1:color:R:3
1 4.804947632587703 16.032884316085333 0.3108986061260275 0.7162805107038318 0.04919767004851261 1 
2 8.052338240058406 5.376909478333742 0.260112971645896 0.9917210610140654 0.40938875260100605 1 
3 11.76530716490076 5.335411049289224 0.30836571478481123 0.00790763861395255 0.4114273864814656 1 
4 9.298137641256679 5.750333001847747 0.2770403669437302 0.8647258697990652 0.1579838601771616 1 
5 12.755407005943741 10.487368480169094 0.27255197284791227 0.26931425559551836 0.05639647507199613 1 
6 8.297564785995183 11.452704005280198 0.3427325241141813 0.6343892744291955 0.01839900029340219 1 
7 9.563565228683405 8.107367242506763 0.34637898604019324 0.5108620524251724 1.1799810644030906E-4 1 
8 4.928553574386193 10.0612641082658 0.3123152721759757 0.8572778027588783 0.15021067532615007 1 
9 10.416092292668175 7.793863614097201 0.25514017260989946 0.48705304591321275 1.6765172722704724E-4 1 
9
Time=3401 Lattice="20.0 0.00000000 0.00000000 0.00000000 25.0 0.00000000 0.00000000 0.00000000 0.000000000000000001" Properties=id:I:1:pos:R:2:radius:R:1:color:R:3
1 4.977737355469512 15.672731617105466 0.3108986061260275 0.7162805107048602 0.04919767004900599 1 
2 8.445096858192368 5.30451058835063 0.260112971645896 0.9917074882997403 0.4093151283291374 1 
3 11.39458197433249 5.336060273983423 0.30836571478481123 0.00370225521247991 0.5607334217611815 1 
4 9.58959070429907 5.477093784001794 0.2770403669437302 0.8648368589152158 0.15810225742646544 1 
5 12.571108727199238 10.13296701379617 0.27255197284791227 0.26931425559213074 0.05639647507375778 1 
6 8.404930379923009 11.067945790089501 0.3427325241141813 0.6343892744290899 0.01839900029337277 1 
7 9.57354287725638 7.727506527540458 0.34637898604019324 0.5152541595642254 2.3274355357255638E-4 1 
8 5.21398813494596 9.781812204436637 0.3123152721759757 0.857277802758355 0.1502106753256155 1 
9 10.403277105241418 7.3839871525557115 0.25514017260989946 0.4817817119873123 3.3201625290540937E-4 1 
9
Time=3601 Lattice="20.0 0.00000000 0.00000000 0.00000000 25.0 0.00000000 0.00000000 0.00000000 0.000000000000000001" Properties=id:I:1:pos:R:2:radius:R:1:color:R:3
1 5.150604512513095 15.312417518930374 0.3108986061260275 0.7162805107047646 0.04919767004896014 1 
2 8.823419131832663 5.275932488413952 0.260112971645896 0.9940086880102166 0.5771713429352141 1 
3 11.03233459959101 5.354586894580631 0.30836571478481123 5.078320019891169E-5 0.492873947708198 1 
4 9.88155024647823 5.203747943945149 0.2770403669437302 0.865152812670889 0.1584397221594135 1 
5 12.3867278568364 9.778406725590449 0.27255197284791227 0.2693142555928494 0.05639647507338402 1 
6 8.512344088778619 10.683015148960925 0.3427325241141813 0.6343892744290656 0.018399000293365997 1 
7 9.58642472048392 7.351300027950933 0.34637898604019324 0.5188381221825773 3.550008729855114E-4 1 
8 5.499550610438936 9.502235066747536 0.3123152721759757 0.8572778027581822 0.15021067532543902 1 
9 10.386189730716637 6.972358816317256 0.25514017260989946 0.4767742413830829 5.397271687480054E-4 1 
8
Time=3801 Lattice="20.0 0.00000000 0.00000000 0.00000000 25.0 0.00000000 0.00000000 0.00000000 0.000000000000000001" Properties=id:I:1:pos:R:2:radius:R:1:color:R:3
1 5.32352355444168 14.951995274962503 0.3108986061260275 0.716280510703424 0.04919767004831693 1 
2 9.180074327772676 5.303796075984955 0.260112971645896 0.9999925972772385 0.5027207844385796 1 
3 10.671224948084113 5.329738624962527 0.30836571478481123 0.003604758534288821 0.44006867054537946 1 
4 12.202291645826426 9.42374001855951 0.27255197284791227 0.26931425559111977 0.056396475074283525 1 
5 8.619790037119078 10.29796897355464 0.3427325241141813 0.6343892744308148 0.018399000293854106 1 
6 9.60165405831811 6.980696215202822 0.34637898604019324 0.5223399467381094 4.993225432637916E-4 1 
7 5.785198795540208 9.2225740159066 0.3123152721759757 0.8572778027573638 0.15021067532460314 1 
8 10.364607888355373 6.558092429548305 0.25514017260989946 0.47089918403733805 8.475758745558615E-4 1 
8
Time=4001 Lattice="20.0 0.00000000 0.00000000 0.00000000 25.0 0.00000000 0.00000000 0.00000000 0.000000000000000001" Properties=id:I:1:pos:R:2:radius:R:1:color:R:3
1 5.496477361921203 14.591500567732213 0.3108986061260275 0.7162805107038394 0.04919767004851627 1 
2 9.542658323561874 5.2802176542579415 0.260112971645896 0.9953291402830119 0.4318161105062762 1 
3 10.318336025362383 5.2630084955322305 0.30836571478481123 0.01746672319341458 0.36899756958628893 1 
4 12.01781835372581 9.069002005423291 0.27255197284791227 0.2693142555916922 0.05639647507398582 1 
5 8.72725758757788 9.912845384217395 0.3427325241141813 0.6343892744301979 0.01839900029368191 1 
6 9.619697957771125 6.618202268581676 0.34637898604019324 0.5279669769455455 7.827645197660549E-4 1 
7 6.070904410503018 8.942856738924212 0.3123152721759757 0.8572778027570314 0.15021067532426358 1 
8 10.336482921561968 6.141301715400465 0.25514017260989946 0.46060380740432394 0.0015544763878760914 1 
8
Time=4201 Lattice="20.0 0.00000000 0.00000000 0.00000000 25.0 0.00000000 0.00000000 0.00000000 0.000000000000000001" Properties=id:I:1:pos:R:2:radius:R:1:color:R:3
1 5.669454464114048 14.230957306376492 0.3108986061260275 0.7162805107037 0.04919767004844938 1 
2 9.530241463310396 5.2002272844337085 0.260112971645896 0.03494593864142881 0.31635708558755027 1 
3 10.338499247781451 5.114267396981561 0.30836571478481123 0.8488396323745891 0.14179487596523482 1 
4 11.83332021538169 8.714216213514694 0.27255197284791227 0.26931425559372246 0.05639647507293 1 
5 8.834739612572038 9.527669923553077 0.3427325241141813 0.634389274436628 0.018399000295476253 1 
6 9.642268957120384 6.2675439725279425 0.34637898604019324 0.5356217950174036 0.0012705265178946101 1 
7 6.356648506434034 8.663101787523898 0.3123152721759757 0.8572778027525925 0.15021067531972954 1 
8 10.301289224180417 5.763217920302548 0.25514017260989946 0.4345986813402654 0.004295786262041301 1 
7
Time=4401 Lattice="20.0 0.00000000 0.00000000 0.00000000 25.0 0.00000000 0.00000000 0.00000000 0.000000000000000001" Properties=id:I:1:pos:R:2:radius:R:1:color:R:3
1 5.842447174967185 13.870381511249738 0.3108986061260275 0.7162805107029222 0.049197670048076236 1 
2 9.399843777964389 5.260053320549395 0.260112971645896 0.5016114607800984 0.9999974031874108 1 
3 11.648805428772395 8.359398407363175 0.27255197284791227 0.2693142555930814 0.0563964750732634 1 
4 8.942231336279228 9.142459706431845 0.3427325241141813 0.6343892745334875 0.018399000322504577 1 
5 9.654899782457521 5.948914133744134 0.34637898604019324 0.48337147352487075 2.765843916597843E-4 1 
6 6.642418386574489 8.383321592311614 0.3123152721759757 0.8572778026916199 0.15021067525745174 1 
7 10.260441842353993 5.519090054302384 0.25514017260989946 0.4633525684331285 0.0013448428427201287 1 
7
Time=4601 Lattice="20.0 0.00000000 0.00000000 0.00000000 25.0 0.00000000 0.00000000 0.00000000 0.000000000000000001" Properties=id:I:1:pos:R:2:radius:R:1:color:R:3
1 6.015450344429248 13.509783916816438 0.3108986061260275 0.7162805107036692 0.049197670048434616 1 
2 9.237742112220479 5.374264324031568 0.260112971645896 0.17432837344308066 0.12060839274468593 1 
3 11.464279487008186 8.004559150051609 0.27255197284791227 0.26931425590263747 0.05639647491228594 1 
4 9.049729558943877 8.75722620081393 0.3427325241141813 0.6343892756963543 0.01839900064699901 1 
5 9.869186413967883 6.659754049452039 0.34637898604019324 0.6710442310489069 0.9698338759869154 1 
6 6.92820554313458 8.10352448233766 0.3123152721759757 0.8572778019221639 0.1502106744715227 1 
7 10.227019096475457 5.214123488664936 0.25514017260989946 0.3783466010466934 0.0150253093994413 1 
6
Time=4801 Lattice="20.0 0.00000000 0.00000000 0.00000000 25.0 0.00000000 0.00000000 0.00000000 0.000000000000000001" Properties=id:I:1:pos:R:2:radius:R:1:color:R:3
1 6.188460521697929 13.14917171572386 0.3108986061260275 0.716280510702358 0.049197670047805564 1 
2 9.179423627421858 5.277845399926433 0.260112971645896 0.5924342527871165 0.9913816326560115 1 
3 11.279749968845817 7.649707385426086 0.27255197284791227 0.26934005693145 0.05638305863773274 1 
4 9.15723177235807 8.371977631130004 0.3427325241141813 0.6343871288981355 0.01839840159472489 1 
5 10.09853056546234 7.204022614205769 0.34637898604019324 0.7282922308095804 0.9448400356892186 1 
6 7.214004271670114 7.8237160373914145 0.3123152721759757 0.8572777925539454 0.15021066490274482 1 
6
Time=5001 Lattice="20.0 0.00000000 0.00000000 0.00000000 25.0 0.00000000 0.00000000 0.00000000 0.000000000000000001" Properties=id:I:1:pos:R:2:radius:R:1:color:R:3
1 6.361475394558896 12.788549727415122 0.3108986061260275 0.7162805107026935 0.049197670047966546 1 
2 9.26890291538858 5.375882534434975 0.260112971645896 0.9696354528393298 0.6715882904990825 1 
3 11.097889745852171 7.294980633834591 0.27255197284791227 0.28120151989445924 0.05041438512391738 1 
4 9.26454465053077 7.9868691059559 0.3427325241141813 0.6335692464027856 0.018170926141445942 1 
5 10.244092741696958 7.436935431411324 0.34637898604019324 0.8274040196773167 0.8778976156303916 1 
6 7.499810703336649 7.543899984009568 0.3123152721759757 0.8572776804271407 0.1502105503755124 1 
6
Time=5201 Lattice="20.0 0.00000000 0.00000000 0.00000000 25.0 0.00000000 0.00000000 0.00000000 0.000000000000000001" Properties=id:I:1:pos:R:2:radius:R:1:color:R:3
1 6.534493413708545 12.427921181168033 0.3108986061260275 0.7162805107032612 0.04919767004823883 1 
2 9.448800947535295 5.386870931359722 0.260112971645896 0.9960365909991666 0.43716927192905214 1 
3 10.950857270909536 6.928789326298914 0.27255197284791227 0.34213899629483135 0.025574132757080037 1 
4 9.365866789836035 7.603960706405538 0.3427325241141813 0.6156436167458892 0.013557244985671624 1 
5 10.293563299466111 7.471601196929643 0.34637898604019324 0.6867856548708882 0.03619926785907995 1 
6 7.785621673656684 7.264078688983249 0.3123152721759757 0.8572763255874798 0.15020916653704441 1 
6
Time=5401 Lattice="20.0 0.00000000 0.00000000 0.00000000 25.0 0.00000000 0.00000000 0.00000000 0.000000000000000001" Properties=id:I:1:pos:R:2:radius:R:1:color:R:3
1 6.707513541034369 12.06728824076209 0.3108986061260275 0.7162805107019702 0.049197670047619435 1 
2 9.682257278124977 5.326190320116891 0.260112971645896 0.9689791842726885 0.3266260552478436 1 
3 10.822518608801097 6.543728833835751 0.27255197284791227 0.33320323002311647 0.028641497875259936 1 
4 9.430833023754394 7.222965012860779 0.3427325241141813 0.5494559453742178 0.002451902358030944 1 
5 10.311335799467198 7.385858187469704 0.34637898604019324 0.6176961599828599 0.01404978246193872 1 
6 8.071426379329042 6.984252092963846 0.3123152721759757 0.8572543413770055 0.15018671327795163 1 
6
Time=5601 Lattice="20.0 0.00000000 0.00000000 0.00000000 25.0 0.00000000 0.00000000 0.00000000 0.000000000000000001" Properties=id:I:1:pos:R:2:radius:R:1:color:R:3
1 6.880535080947186 11.70665235604339 0.3108986061260275 0.7162805107023898 0.04919767004782083 1 
2 9.941159637663661 5.2028656109981135 0.260112971645896 0.9309181733305945 0.2464067668619217 1 
3 10.67457689826399 6.164291347643213 0.27255197284791227 0.30318142253750047 0.04036705126194651 1 
4 9.4585029555359 6.832201477040829 0.3427325241141813 0.534885416715053 0.0012184769855472233 1 
5 10.349233155732406 7.2158785322850845 0.34637898604019324 0.5851066213409201 0.007296374070645539 1 
6 8.356988264417291 6.70438762645374 0.3123152721759757 0.8566594906592375 0.14958024067884923 1 
6
Time=5801 Lattice="20.0 0.00000000 0.00000000 0.00000000 25.0 0.00000000 0.00000000 0.00000000 0.000000000000000001" Properties=id:I:1:pos:R:2:radius:R:1:color:R:3
1 7.053557567366454 11.346014498482866 0.3108986061260275 0.7162805107030108 0.0491976700481187 1 