5
Time=1 Lattice="20.0 0.00000000 0.00000000 0.00000000 25.0 0.00000000 0.00000000 0.00000000 0.000000000000000001" Properties=id:I:1:pos:R:2:radius:R:1:color:R:3
1 18.127422533904593 24.11533567276499 0.29563212285807694 0.3023551471213286 0.04072174868543105 1 
2 12.384145020140075 24.60349386947485 0.33650627988383774 0.43717699340195687 0.00396243101758692 1 
3 15.432396851716083 20.729260975043946 0.3366667508527403 0.33413605673616464 0.02831244204985517 1 
4 16.199698906518503 15.625164791181854 0.2651639835629423 0.24504079205606644 0.06988861642058108 1 
5 10.011245856262112 6.1587089124101215 0.30554684697412365 0.537601409320384 0.0014158706726407067 1 
5
Time=201 Lattice="20.0 0.00000000 0.00000000 0.00000000 25.0 0.00000000 0.00000000 0.00000000 0.000000000000000001" Properties=id:I:1:pos:R:2:radius:R:1:color:R:3
1 18.099210673029688 24.04977821480699 0.29563212285807694 0.3023551471708961 0.04072174866410028 1 
2 12.375177653201725 24.53268938008039 0.33650627988383774 0.43717699351433864 0.003962431003353806 1 
3 15.408721403434887 20.661932210486253 0.3366667508527403 0.3341360567566745 0.028312442042643104 1 
4 16.163305984563532 15.563770617028396 0.2651639835629423 0.24504079205445028 0.0698886164215391 1 
5 10.016613088010294 6.087540926548238 0.30554684697412365 0.5376014093369585 0.0014158706738907068 1 
5
Time=401 Lattice="20.0 0.00000000 0.00000000 0.00000000 25.0 0.00000000 0.00000000 0.00000000 0.000000000000000001" Properties=id:I:1:pos:R:2:radius:R:1:color:R:3
1 18.0281371899278 23.884620840011117 0.29563212285807694 0.3023551471772242 0.040721748661377066 1 
2 12.352586374825977 24.354313281371656 0.33650627988383774 0.43717699351216543 0.00396243100362903 1 
3 15.349076398778411 20.49231242428873 0.3366667508527403 0.3341360567558799 0.028312442042922548 1 
4 16.071622145100164 15.40910170602238 0.2651639835629423 0.24504079206152335 0.0698886164173464 1 
5 10.030134629769494 5.908249079664988 0.30554684697412365 0.5376014093343412 0.001415870673693309 1 
5
Time=601 Lattice="20.0 0.00000000 0.00000000 0.00000000 25.0 0.00000000 0.00000000 0.00000000 0.000000000000000001" Properties=id:I:1:pos:R:2:radius:R:1:color:R:3
1 17.92834420769145 23.652726380205397 0.29563212285807694 0.3023551471833979 0.0407217486587203 1 
2 12.32086637260504 24.10385865224792 0.33650627988383774 0.43717699351265654 0.003962431003566802 1 
3 15.265329934825807 20.25415237396589 0.3366667508527403 0.3341360567581715 0.028312442042116748 1 
4 15.942890537134305 15.191933907065739 0.2651639835629423 0.2450407920560932 0.06988861642056521 1 
5 10.04911998011041 5.65650866522094 0.30554684697412365 0.5376014093353757 0.0014158706737713023 1 
5
Time=801 Lattice="20.0 0.00000000 0.00000000 0.00000000 25.0 0.00000000 0.00000000 0.00000000 0.000000000000000001" Properties=id:I:1:pos:R:2:radius:R:1:color:R:3
1 17.80930767871265 23.37611462889489 0.29563212285807694 0.3023551471832232 0.040721748658795465 1 
2 12.28302965424072 23.805107687504286 0.33650627988383774 0.43717699351239486 0.003962431003599942 1 
3 15.165434249181226 19.970066809063848 0.3366667508527403 0.3341360567598076 0.02831244204154143 1 
4 15.789335012099151 14.932888627382965 0.2651639835629423 0.24504079205757884 0.06988861641968458 1 
5 10.07176636420694 5.356223971170093 0.30554684697412365 0.537601409330075 0.0014158706733715665 1 
5
Time=1001 Lattice="20.0 0.00000000 0.00000000 0.00000000 25.0 0.00000000 0.00000000 0.00000000 0.000000000000000001" Properties=id:I:1:pos:R:2:radius:R:1:color:R:3
1 17.677376980184466 23.06953998424977 0.29563212285807694 0.30235514718203593 0.04072174865930639 1 
2 12.241094420353607 23.47399568513704 0.33650627988383774 0.4371769935148191 0.0039624310032929655 1 
3 15.054717751480936 19.65520877900762 0.3366667508527403 0.334136056760295 0.028312442041370012 1 
4 15.619146181373052 14.645783274158912 0.2651639835629423 0.24504079206026746 0.0698886164180908 1 
5 10.09686582987634 5.023412104230417 0.30554684697412365 0.5376014093189557 0.001415870672533015 1 
4
Time=1201 Lattice="20.0 0.00000000 0.00000000 0.00000000 25.0 0.00000000 0.00000000 0.00000000 0.000000000000000001" Properties=id:I:1:pos:R:2:radius:R:1:color:R:3
1 17.53680652254255 22.742888654574674 0.29563212285807694 0.30235514718142764 0.04072174865956818 1 
2 12.196412969529936 23.12120011728991 0.33650627988383774 0.437176993518452 0.0039624310028328336 1 
3 14.936750751202029 19.319731609015246 0.3366667508527403 0.3341360567618825 0.02831244204081179 1 
4 15.437812177327581 14.339876223377017 0.2651639835629423 0.24504079206058643 0.06988861641790173 1 
4
Time=1401 Lattice="20.0 0.00000000 0.00000000 0.00000000 25.0 0.00000000 0.00000000 0.00000000 0.000000000000000001" Properties=id:I:1:pos:R:2:radius:R:1:color:R:3
1 17.39044698036537 22.402784909698262 0.29563212285807694 0.3023551471836756 0.04072174865860079 1 
2 12.149891411614663 22.75387544139926 0.33650627988383774 0.43717699351777695 0.003962431002918321 1 
3 14.813925539968016 18.970438551034178 0.3366667508527403 0.3341360567605993 0.028312442041263042 1 
4 15.249010331914244 14.021371064806894 0.2651639835629423 0.2450407920610166 0.06988861641764677 1 
4
Time=1601 Lattice="20.0 0.00000000 0.00000000 0.00000000 25.0 0.00000000 0.00000000 0.00000000 0.000000000000000001" Properties=id:I:1:pos:R:2:radius:R:1:color:R:3
1 17.24020845275131 22.053667352306046 0.29563212285807694 0.3023551471827404 0.04072174865900324 1 
2 12.102136886972977 22.376815513220436 0.33650627988383774 0.43717699351752903 0.00396243100294974 1 
3 14.687845076643386 18.611888135007828 0.3366667508527403 0.33413605676093217 0.02831244204114597 1 
4 15.055204647340972 13.694424523783278 0.2651639835629423 0.24504079205990414 0.06988861641830618 1 
4
Time=1801 Lattice="20.0 0.00000000 0.00000000 0.00000000 25.0 0.00000000 0.00000000 0.00000000 0.000000000000000001" Properties=id:I:1:pos:R:2:radius:R:1:color:R:3
1 17.087370804684394 21.698510075289487 0.29563212285807694 0.30235514718067036 0.040721748659894086 1 
2 12.053556210984201 21.993232463536224 0.33650627988383774 0.4371769935152189 0.003962431003242284 1 
3 14.55958342640237 18.247134811288316 0.3366667508527403 0.33413605676045527 0.028312442041313668 1 
4 14.858046132264349 13.361821820824874 0.2651639835629423 0.2450407920612626 0.06988861641750094 1 
4
Time=2001 Lattice="20.0 0.00000000 0.00000000 0.00000000 25.0 0.00000000 0.00000000 0.00000000 0.000000000000000001" Properties=id:I:1:pos:R:2:radius:R:1:color:R:3
1 16.932791611761882 21.33930587439391 0.29563212285807694 0.3023551471780176 0.04072174866103562 1 
2 12.004421970953755 21.60527858576006 0.33650627988383774 0.43717699351583783 0.003962431003163902 1 
3 14.42986026834814 17.878225219258105 0.3366667508527403 0.3341360567603707 0.028312442041343366 1 
4 14.65864104769875 13.025429197434168 0.2651639835629423 0.2450407920627211 0.06988861641663635 1 
4
Time=2201 Lattice="20.0 0.00000000 0.00000000 0.00000000 25.0 0.00000000 0.00000000 0.00000000 0.000000000000000001" Properties=id:I:1:pos:R:2:radius:R:1:color:R:3
1 16.777045493898424 20.977390025621567 0.29563212285807694 0.3023551471741628 0.04072174866269451 1 
2 11.95491681444389 21.21439602756527 0.33650627988383774 0.4371769935155876 0.003962431003195599 1 
3 14.299157824625077 17.50653071293753 0.3366667508527403 0.3341360567587588 0.02831244204191019 1 
4 14.457730645622016 12.686497131741106 0.2651639835629423 0.24504079206290985 0.06988861641652444 1 
4
Time=2401 Lattice="20.0 0.00000000 0.00000000 0.00000000 25.0 0.00000000 0.00000000 0.00000000 0.000000000000000001" Properties=id:I:1:pos:R:2:radius:R:1:color:R:3
1 16.62051747609646 20.61365723281595 0.29563212285807694 0.30235514717626144 0.0407217486617914 1 
2 11.905163124747377 20.82155110233125 0.33650627988383774 0.4371769935158316 0.003962431003164679 1 
3 14.167799208957492 17.132970170305786 0.3366667508527403 0.3341360567559788 0.028312442042887798 1 
4 14.25581160311579 12.345863508635478 0.2651639835629423 0.2450407920608722 0.06988861641773236 1 
4
Time=2601 Lattice="20.0 0.00000000 0.00000000 0.00000000 25.0 0.00000000 0.00000000 0.00000000 0.000000000000000001" Properties=id:I:1:pos:R:2:radius:R:1:color:R:3
1 16.46346554497968 20.248706993728717 0.29563212285807694 0.30235514717631173 0.04072174866176975 1 
2 11.855242904989788 20.427391289899663 0.33650627988383774 0.4371769935149562 0.0039624310032755905 1 
3 14.036000924221556 16.75815928703432 0.3366667508527403 0.33413605675431324 0.02831244204347344 1 
4 14.053216719463036 12.004089754239919 0.2651639835629423 0.24504079206305462 0.06988861641643862 1 
4
Time=2801 Lattice="20.0 0.00000000 0.00000000 0.00000000 25.0 0.00000000 0.00000000 0.00000000 0.000000000000000001" Properties=id:I:1:pos:R:2:radius:R:1:color:R:3
1 16.30606256490395 19.882941002793146 0.29563212285807694 0.3023551471825287 0.04072174865909434 1 
2 11.805211101495301 20.032350435178678 0.33650627988383774 0.43717699351335343 0.003962431003478539 1 
3 13.903908038514471 16.38251061099927 0.3366667508527403 0.3341360567536743 0.02831244204369815 1 
4 13.850168987359035 11.661552053032054 0.2651639835629423 0.24504079206322693 0.06988861641633654 1 
4
Time=3001 Lattice="20.0 0.00000000 0.00000000 0.00000000 25.0 0.00000000 0.00000000 0.00000000 0.000000000000000001" Properties=id:I:1:pos:R:2:radius:R:1:color:R:3
1 16.148424363903917 19.516628416016438 0.29563212285807694 0.30235514717627754 0.04072174866178446 1 
2 11.755104531136308 19.636719236646417 0.33650627988383774 0.43717699351351724 0.003962431003457834 1 
3 13.771617754953237 16.006300570568765 0.3366667508527403 0.3341360567533768 0.028312442043802732 1 
4 13.64681782341832 11.318502468029493 0.2651639835629423 0.24504079206088114 0.06988861641772703 1 
4
Time=3201 Lattice="20.0 0.00000000 0.00000000 0.00000000 25.0 0.00000000 0.00000000 0.00000000 0.000000000000000001" Properties=id:I:1:pos:R:2:radius:R:1:color:R:3
1 15.990628552739686 19.14994958181306 0.29563212285807694 0.3023551471763598 0.040721748661749047 1 
2 11.704947863120879 19.240692477291525 0.33650627988383774 0.4371769935153893 0.0039624310032207455 1 
3 13.639195204640544 15.629714387021219 0.3366667508527403 0.3341360567545839 0.02831244204337824 1 
4 13.443263344486397 10.975109894464566 0.2651639835629423 0.2450407920626142 0.06988861641669974 1 
4
Time=3401 Lattice="20.0 0.00000000 0.00000000 0.00000000 25.0 0.00000000 0.00000000 0.00000000 0.000000000000000001" Properties=id:I:1:pos:R:2:radius:R:1:color:R:3
1 15.832727134634993 18.783025342931523 0.29563212285807694 0.30235514717646456 0.04072174866170397 1 
2 11.654757627089941 18.844400671766785 0.33650627988383774 0.43717699351623235 0.003962431003113942 1 
3 13.506684028779624 15.252876168169124 0.3366667508527403 0.33413605675638747 0.02831244204274408 1 
4 13.239572634018433 10.631487500859999 0.2651639835629423 0.24504079206447882 0.0698886164155944 1 
4
Time=3601 Lattice="20.0 0.00000000 0.00000000 0.00000000 25.0 0.00000000 0.00000000 0.00000000 0.000000000000000001" Properties=id:I:1:pos:R:2:radius:R:1:color:R:3
1 15.674754954428757 18.415936670249952 0.29563212285807694 0.3023551471761843 0.0407217486618246 1 
2 11.604544898755883 18.447931271629987 0.33650627988383774 0.437176993515485 0.0039624310032085885 1 
3 13.374113469224254 14.875869072653005 0.3366667508527403 0.3341360567551008 0.028312442043196495 1 
4 13.035790641388587 10.287711115967276 0.2651639835629423 0.2450407920627498 0.06988861641661936 1 
4
Time=3801 Lattice="20.0 0.00000000 0.00000000 0.00000000 25.0 0.00000000 0.00000000 0.00000000 0.000000000000000001" Properties=id:I:1:pos:R:2:radius:R:1:color:R:3
1 15.516735359960407 18.04873781843325 0.29563212285807694 0.3023551471769969 0.04072174866147488 1 
2 11.554317099417108 18.051342873937063 0.33650627988383774 0.4371769935152253 0.003962431003241507 1 
3 13.241503119527833 14.49874882105579 0.3366667508527403 0.33413605675388225 0.028312442043624986 1 
4 12.831947484998166 9.943831548964962 0.2651639835629423 0.24504079206263768 0.06988861641668581 1 
4
Time=4001 Lattice="20.0 0.00000000 0.00000000 0.00000000 25.0 0.00000000 0.00000000 0.00000000 0.000000000000000001" Properties=id:I:1:pos:R:2:radius:R:1:color:R:3
1 15.35868399549199 17.681465140912124 0.29563212285807694 0.30235514717708667 0.0407217486614363 1 
2 11.504079201729946 17.654674741740642 0.33650627988383774 0.4371769935178368 0.003962431002910771 1 
3 13.108866108384884 14.121552749045374 0.3366667508527403 0.3341360567540975 0.028312442043549324 1 
4 12.62806334573371 9.599882844621563 0.2651639835629423 0.24504079206413992 0.0698886164157953 1 
4
Time=4201 Lattice="20.0 0.00000000 0.00000000 0.00000000 25.0 0.00000000 0.00000000 0.00000000 0.000000000000000001" Properties=id:I:1:pos:R:2:radius:R:1:color:R:3
1 15.200611343483363 17.314142996355166 0.29563212285807694 0.3023551471775578 0.040721748661233514 1 
2 11.453834537627236 17.257953183311535 0.33650627988383774 0.43717699351717887 0.0039624310029940935 1 
3 12.976211232696453 13.744305873444352 0.3366667508527403 0.33413605675485286 0.028312442043283703 1 
4 12.42415174582748 9.255887814692176 0.2651639835629423 0.24504079206281165 0.06988861641658267 1 
4
Time=4401 Lattice="20.0 0.00000000 0.00000000 0.00000000 25.0 0.00000000 0.00000000 0.00000000 0.000000000000000001" Properties=id:I:1:pos:R:2:radius:R:1:color:R:3
1 15.04252442772259 16.946787706331946 0.29563212285807694 0.3023551471785997 0.04072174866078515 1 
2 11.40358533967589 16.861195826547647 0.33650627988383774 0.43717699351816797 0.003962431002868805 1 
3 12.84354438684192 13.36702495681596 0.3366667508527403 0.33413605675590546 0.028312442042913555 1 
4 12.22022174587176 8.911861744228839 0.2651639835629423 0.24504079206300367 0.06988861641646887 1 
4
Time=4601 Lattice="20.0 0.00000000 0.00000000 0.00000000 25.0 0.00000000 0.00000000 0.00000000 0.000000000000000001" Properties=id:I:1:pos:R:2:radius:R:1:color:R:3
1 14.884427954512411 16.579410207137876 0.29563212285807694 0.3023551471763482 0.04072174866175404 1 
2 11.353333103812519 16.464414483050316 0.33650627988383774 0.43717699351750405 0.003962431002952904 1 
3 12.710869520358193 12.989721230941987 0.3366667508527403 0.33413605675578606 0.02831244204295552 1 
4 12.016279416933976 8.567814875006098 0.2651639835629423 0.24504079206166085 0.06988861641726485 1 
4
Time=4801 Lattice="20.0 0.00000000 0.00000000 0.00000000 25.0 0.00000000 0.00000000 0.00000000 0.000000000000000001" Properties=id:I:1:pos:R:2:radius:R:1:color:R:3
1 14.726325077319133 16.21201782665242 0.29563212285807694 0.30235514717937406 0.04072174866045192 1 
2 11.303078832390472 16.067617067204424 0.33650627988383774 0.4371769935180574 0.003962431002882794 1 
3 12.57818927963844 12.612402221696433 0.3366667508527403 0.3341360567574382 0.028312442042374597 1 
4 11.812328826941 8.22375406954051 0.2651639835629423 0.24504079206102997 0.06988861641763883 1 
4
Time=5001 Lattice="20.0 0.00000000 0.00000000 0.00000000 25.0 0.00000000 0.00000000 0.00000000 0.000000000000000001" Properties=id:I:1:pos:R:2:radius:R:1:color:R:3
1 14.568217909126972 15.84461547493502 0.29563212285807694 0.3023551471781033 0.04072174866099876 1 
2 11.25282319703938 15.670808882058322 0.33650627988383774 0.4371769935178959 0.003962431002903277 1 
3 12.445505437904584 12.235072971802536 0.3366667508527403 0.3341360567585745 0.028312442041975028 1 
4 11.608372701614682 7.879683926071982 0.2651639835629423 0.24504079206136192 0.06988861641744204 1 
4
Time=5201 Lattice="20.0 0.00000000 0.00000000 0.00000000 25.0 0.00000000 0.00000000 0.00000000 0.000000000000000001" Properties=id:I:1:pos:R:2:radius:R:1:color:R:3
1 14.41010786574375 15.477206441977735 0.29563212285807694 0.30235514717892986 0.0407217486606431 1 
2 11.20256664778629 15.273993480923625 0.33650627988383774 0.43717699351849554 0.003962431002827338 1 
3 12.31281918330585 11.857736860146375 0.3366667508527403 0.33413605675969343 0.028312442041581565 1 
4 11.404412867329334 7.53560752566025 0.2651639835629423 0.24504079206018758 0.06988861641813815 1 
4
Time=5401 Lattice="20.0 0.00000000 0.00000000 0.00000000 25.0 0.00000000 0.00000000 0.00000000 0.000000000000000001" Properties=id:I:1:pos:R:2:radius:R:1:color:R:3
1 14.251995895833101 15.109792932243218 0.29563212285807694 0.30235514717911016 0.04072174866056549 1 
2 11.15230948617261 14.877173244704673 0.33650627988383774 0.43717699351886774 0.003962431002780209 1 
3 12.180131311962954 11.480396150755197 0.3366667508527403 0.33413605676106817 0.028312442041098118 1 
4 11.200450547850929 7.1915269327740665 0.2651639835629423 0.24504079206105706 0.06988861641762273 1 
4
Time=5601 Lattice="20.0 0.00000000 0.00000000 0.00000000 25.0 0.00000000 0.00000000 0.00000000 0.000000000000000001" Properties=id:I:1:pos:R:2:radius:R:1:color:R:3
1 14.093882635050758 14.74237642283832 0.29563212285807694 0.30235514717815204 0.040721748660977775 1 
2 11.10205191424395 14.48034976872931 0.33650627988383774 0.43717699351954575 0.003962431002694333 1 
3 12.047442357316783 11.10305236064474 0.3366667508527403 0.33413605675829616 0.028312442042072894 1 
4 10.996486563165563 6.8474435307137504 0.2651639835629423 0.24504079206247625 0.06988861641678151 1 
4
Time=5801 Lattice="20.0 0.00000000 0.00000000 0.00000000 25.0 0.00000000 0.00000000 0.00000000 0.000000000000000001" Properties=id:I:1:pos:R:2:radius:R:1:color:R:3
1 13.935768509317747 14.374957903498316 0.29563212285807694 0.3023551471788563 0.04072174866067474 1 
2 11.051794067384222 14.083524121952285 0.33650627988383774 0.43717699351765604 0.003962431002933642 1 
3 11.914752676801223 10.725706506292935 0.3366667508527403 0.33413605675978475 0.028312442041549424 1 
4 10.792521462705995 6.503358246361744 0.2651639835629423 0.2450407920619806 0.06988861641707528 1 
4
Time=6001 Lattice="20.0 0.00000000 0.00000000 0.00000000 25.0 0.00000000 0.00000000 0.00000000 0.000000000000000001" Properties=id:I:1:pos:R:2:radius:R:1:color:R:3
1 13.777653804022234 14.007538037397929 0.29563212285807694 0.30235514717808076 0.04072174866100847 1 
2 11.00153603630302 13.686697020624347 0.33650627988383774 0.4371769935146464 0.003962431003314837 1 
3 11.782062509917582 10.348359268793859 0.3366667508527403 0.3341360567591022 0.028312442041789454 1 
4 10.58855561461878 6.159271700777437 0.2651639835629423 0.24504079206069895 0.06988861641783506 1 
4
Time=6201 Lattice="20.0 0.00000000 0.00000000 0.00000000 25.0 0.00000000 0.00000000 0.00000000 0.000000000000000001" Properties=id:I:1:pos:R:2:radius:R:1:color:R:3
1 13.619538710390914 13.640117268897011 0.29563212285807694 0.30235514718160705 0.040721748659490964 1 
2 10.951277881784893 13.289868944670506 0.33650627988383774 0.4371769935129982 0.003962431003523559 1 
3 11.649372017140808 9.97101110451434 0.3366667508527403 0.33413605675875846 0.028312442041910357 1 
4 10.384589265581983 5.815184310101482 0.2651639835629423 0.2450407920609453 0.06988861641768895 1 
4
Time=6401 Lattice="20.0 0.00000000 0.00000000 0.00000000 25.0 0.00000000 0.00000000 0.00000000 0.000000000000000001" Properties=id:I:1:pos:R:2:radius:R:1:color:R:3
1 13.461423356557862 13.272695895742084 0.29563212285807694 0.30235514718940415 0.04072174865613559 1 
2 10.901019644551607 12.893040215667556 0.33650627988383774 0.4371769934982279 0.003962431005394229 1 
3 11.516681306000109 9.593662319243915 0.3366667508527403 0.33413605676124153 0.028312442041037167 1 
4 10.18062258088308 5.4710963531717125 0.2651639835629423 0.24504079205918938 0.06988861641872984 1 
4
Time=6601 Lattice="20.0 0.00000000 0.00000000 0.00000000 25.0 0.00000000 0.00000000 0.00000000 0.000000000000000001" Properties=id:I:1:pos:R:2:radius:R:1:color:R:3
1 13.303307828394903 12.905274117441696 0.29563212285807694 0.30235514722626144 0.0407217486402745 1 
2 10.850761351878962 12.496211049085243 0.33650627988383774 0.4371769934553846 0.003962431010820278 1 
3 11.383990448542892 9.21631311787688 0.3366667508527403 0.3341360567592867 0.02831244204172456 1 
4 9.994548202600205 5.123957470228472 0.2651639835629423 0.3181845553002973 0.03422844218581855 1 
3
Time=6801 Lattice="20.0 0.00000000 0.00000000 0.00000000 25.0 0.00000000 0.00000000 0.00000000 0.000000000000000001" Properties=id:I:1:pos:R:2:radius:R:1:color:R:3
1 13.145192183482573 12.53785206768413 0.29563212285807694 0.3023551473516749 0.04072174858630434 1 
2 10.800503022001386 12.099381589291381 0.33650627988383774 0.43717699330420984 0.003962431029966518 1 
3 11.25129949304641 8.838963637703882 0.3366667508527403 0.33413605676104274 0.02831244204110711 1 
3
Time=7001 Lattice="20.0 0.00000000 0.00000000 0.00000000 25.0 0.00000000 0.00000000 0.00000000 0.000000000000000001" Properties=id:I:1:pos:R:2:radius:R:1:color:R:3
1 12.98707646054884 12.170429836078636 0.29563212285807694 0.30235514778150296 0.040721748401333024 1 
2 10.750244666988412 11.702551932989563 0.33650627988383774 0.4371769927719834 0.003962431097372876 1 
3 11.118608471859785 8.461613970714335 0.3366667508527403 0.3341360567609361 0.02831244204114458 1 
3
Time=7201 Lattice="20.0 0.00000000 0.00000000 0.00000000 25.0 0.00000000 0.00000000 0.00000000 0.000000000000000001" Properties=id:I:1:pos:R:2:radius:R:1:color:R:3
1 12.828960686050364 11.803007482789027 0.29563212285807694 0.3023551492361586 0.04072174777533949 1 
2 10.699986294422448 11.30572214485541 0.33650627988383774 0.43717699094725515 0.003962431328474125 1 
3 10.985917406656581 8.084264178550486 0.3366667508527403 0.33413605676095415 0.028312442041138253 1 
3
Time=7401 Lattice="20.0 0.00000000 0.00000000 0.00000000 25.0 0.00000000 0.00000000 0.00000000 0.000000000000000001" Properties=id:I:1:pos:R:2:radius:R:1:color:R:3
1 12.670844879417588 11.435585048582896 0.29563212285807694 0.30235515409153896 0.04072174568588521 1 
2 10.649727907686952 10.908892267773865 0.33650627988383774 0.4371769848047543 0.003962432106420055 1 
3 10.85322631195949 7.706914302513946 0.3366667508527403 0.33413605675910807 0.0283124420417874 1 
3
Time=7601 Lattice="20.0 0.00000000 0.00000000 0.00000000 25.0 0.00000000 0.00000000 0.00000000 0.000000000000000001" Properties=id:I:1:pos:R:2:radius:R:1:color:R:3
1 12.512729059297712 11.068162562455194 0.29563212285807694 0.3023551699503035 0.040721738861257906 1 
2 10.599469503448383 10.512062328811156 0.33650627988383774 0.4371769645297873 0.003962434674239235 1 
3 10.72053519750001 7.329564370277027 0.3366667508527403 0.3341360567597745 0.028312442041553032 1 
3
Time=7801 Lattice="20.0 0.00000000 0.00000000 0.00000000 25.0 0.00000000 0.00000000 0.00000000 0.000000000000000001" Properties=id:I:1:pos:R:2:radius:R:1:color:R:3
1 12.354613256312401 10.700740049884514 0.29563212285807694 0.3023552204891571 0.04072171711247846 1 
2 10.54921106144307 10.115232340101674 0.33650627988383774 0.4371768991621892 0.0039624429530337735 1 
3 10.58784406979886 6.952214400383707 0.3366667508527403 0.3341360567597005 0.028312442041579067 1 
3
Time=8001 Lattice="20.0 0.00000000 0.00000000 0.00000000 25.0 0.00000000 0.00000000 0.00000000 0.000000000000000001" Properties=id:I:1:pos:R:2:radius:R:1:color:R:3
1 12.196497547794593 10.333317549181949 0.29563212285807694 0.30235537697765025 0.04072164976960513 1 
2 10.498952511644879 9.718402288679965 0.33650627988383774 0.43717669406341936 0.003962468928813023 1 
3 10.455152933224777 6.574864405258197 0.3366667508527403 0.33413605675955294 0.02831244204163097 1 
3
Time=8201 Lattice="20.0 0.00000000 0.00000000 0.00000000 25.0 0.00000000 0.00000000 0.00000000 0.000000000000000001" Properties=id:I:1:pos:R:2:radius:R:1:color:R:3
1 12.038382157869824 9.965895158401745 0.29563212285807694 0.30235584532132104 0.04072144822411922 1 
2 10.448693636141842 9.321572093953074 0.33650627988383774 0.4371760706959398 0.003962547878894107 1 
3 10.322461790705148 6.197514393224946 0.3366667508527403 0.3341360567583872 0.028312442042040864 1 
3
Time=8401 Lattice="20.0 0.00000000 0.00000000 0.00000000 25.0 0.00000000 0.00000000 0.00000000 0.000000000000000001" Properties=id:I:1:pos:R:2:radius:R:1:color:R:3
1 11.880267739293325 9.598473181407199 0.29563212285807694 0.3023571916056136 0.040720868871685134 1 
2 10.398433791026346 8.924741465269392 0.33650627988383774 0.43717424608686994 0.003962778971933589 1 
3 10.18977064420149 5.82016436986404 0.3366667508527403 0.33413605675828695 0.028312442042076114 1 
3
Time=8601 Lattice="20.0 0.00000000 0.00000000 0.00000000 25.0 0.00000000 0.00000000 0.00000000 0.000000000000000001" Properties=id:I:1:pos:R:2:radius:R:1:color:R:3
1 11.722156128198595 9.231052573612105 0.29563212285807694 0.3023608792888615 0.040719281958704445 1 
2 10.34817116243082 8.527909460639274 0.33650627988383774 0.43716913960105563 0.003963425762244455 1 
3 10.059772399294502 5.4423937067487875 0.3366667508527403 0.3548658395201777 0.021527351396323613 1 
3
Time=8801 Lattice="20.0 0.00000000 0.00000000 0.00000000 25.0 0.00000000 0.00000000 0.00000000 0.000000000000000001" Properties=id:I:1:pos:R:2:radius:R:1:color:R:3
1 11.564052232384343 8.863636233975381 0.29563212285807694 0.3023704083030101 0.040715181520572075 1 
2 10.297900913073386 8.131073203291596 0.33650627988383774 0.43715559730426445 0.003965141295678487 1 
3 9.983419405541426 5.062494053618438 0.3366667508527403 0.46851889327681073 9.92044232275613E-4 1 
2
Time=9001 Lattice="20.0 0.00000000 0.00000000 0.00000000 25.0 0.00000000 0.00000000 0.00000000 0.000000000000000001" Properties=id:I:1:pos:R:2:radius:R:1:color:R:3
1 11.405968354140564 8.496232498048395 0.29563212285807694 0.30239333545092106 0.04070531668025179 1 
2 10.24761097209033 7.734224408176265 0.33650627988383774 0.4371219568300986 0.003969404484840233 1 
2
Time=9201 Lattice="20.0 0.00000000 0.00000000 0.00000000 25.0 0.00000000 0.00000000 0.00000000 0.000000000000000001" Properties=id:I:1:pos:R:2:radius:R:1:color:R:3
1 11.247932964230857 8.128863769003292 0.29563212285807694 0.30244380390508263 0.04068360644920743 1 
2 10.197273615883589 7.337340793963828 0.33650627988383774 0.4370448743122624 0.0039791817376601535 1 
2
Time=9401 Lattice="20.0 0.00000000 0.00000000 0.00000000 25.0 0.00000000 0.00000000 0.00000000 0.000000000000000001" Properties=id:I:1:pos:R:2:radius:R:1:color:R:3
1 11.090005607194373 7.761585430049969 0.29563212285807694 0.30254291860241234 0.040640988979266435 1 
2 10.146831644138016 6.940367248752719 0.33650627988383774 0.4368854532263936 0.003999441547126614 1 
2
Time=9601 Lattice="20.0 0.00000000 0.00000000 0.00000000 25.0 0.00000000 0.00000000 0.00000000 0.000000000000000001" Properties=id:I:1:pos:R:2:radius:R:1:color:R:3
1 10.93229527856046 7.394520709407718 0.29563212285807694 0.3027098342030333 0.04056927564669188 1 
2 10.096205721653442 6.543179629937701 0.33650627988383774 0.43771231560278073 0.0038949260767106586 1 
2
Time=9801 Lattice="20.0 0.00000000 0.00000000 0.00000000 25.0 0.00000000 0.00000000 0.00000000 0.000000000000000001" Properties=id:I:1:pos:R:2:radius:R:1:color:R:3
1 10.774972871358578 7.027916243098583 0.29563212285807694 0.3029426511224257 0.04046936853639238 1 
2 10.055722393993548 6.144941776989968 0.33650627988383774 0.46063509312876877 0.0015520046112941777 1 
2
Time=10001 Lattice="20.0 0.00000000 0.00000000 0.00000000 25.0 0.00000000 0.00000000 0.00000000 0.000000000000000001" Properties=id:I:1:pos:R:2:radius:R:1:color:R:3
1 10.618294888270087 6.662277430875509 0.29563212285807694 0.3031725226861706 0.040370862352837766 1 
2 10.032914365585622 5.7450329608178965 0.33650627988383774 0.48238583150923076 3.103552520036801E-4 1 
2
Time=10201 Lattice="20.0 0.00000000 0.00000000 0.00000000 25.0 0.00000000 0.00000000 0.00000000 0.000000000000000001" Properties=id:I:1:pos:R:2:radius:R:1:color:R:3
1 10.462528056992177 6.298523561001856 0.29563212285807694 0.30308274808421476 0.04040931700268863 1 
2 10.02861719683262 5.343316073649132 0.33650627988383774 0.5084871089555695 7.203620763890362E-5 1 
1
Time=10401 Lattice="20.0 0.00000000 0.00000000 0.00000000 25.0 0.00000000 0.00000000 0.00000000 0.000000000000000001" Properties=id:I:1:pos:R:2:radius:R:1:color:R:3
1 10.30757036376444 5.937716372962903 0.29563212285807694 0.30223397566453636 0.04077391230620969 1 
1
Time=10601 Lattice="20.0 0.00000000 0.00000000 0.00000000 25.0 0.00000000 0.00000000 0.00000000 0.000000000000000001" Properties=id:I:1:pos:R:2:radius:R:1:color:R:3
1 10.151857593744442 5.576578378327325 0.29563212285807694 0.30182773416193176 0.04094907357395955 1 
1
Time=10801 Lattice="20.0 0.00000000 0.00000000 0.00000000 25.0 0.00000000 0.00000000 0.00000000 0.000000000000000001" Properties=id:I:1:pos:R:2:radius:R:1:color:R:3
1 10.010959819090663 5.211136725228689 0.29563212285807694 0.36338851318779086 0.019024635068533247 1 
