100
Time=1 Lattice="20.0 0.00000000 0.00000000 0.00000000 25.0 0.00000000 0.00000000 0.00000000 0.000000000000000001" Properties=id:I:1:pos:R:2:radius:R:1:color:R:3
1 6.245579274200258 18.745683690054765 0.32658120247126987 0.7022899449563869 0.042748670674931766 1 
2 12.667389096760948 20.32617576387438 0.2671586896260961 0.4224030322719593 0.006057988626788913 1 
3 2.1031699887482627 20.922233940528777 0.2952825265942425 0.9050833987283537 0.20690028987614884 1 
4 17.312156230314464 12.574961094841578 0.2556177878259197 0.15031702604532637 0.1426181066055318 1 
5 7.151933277860087 21.71052014685057 0.33162942082511 0.009139810820963878 0.4048355387809038 1 
6 1.4632110680318446 20.57987936823639 0.3191231395776287 0.5126899877272182 1.6106172939761576E-4 1 
7 0.5434332090932577 19.641351053841195 0.29206038243213367 0.7731535053468553 0.08120749467459965 1 
8 8.314165482209855 23.07442820630203 0.2696341513419688 0.5483932037204642 0.0023474125118310707 1 
9 4.110587083618694 13.164361867631602 0.34951208635794756 0.7881189700476418 0.0913590095221894 1 
10 4.122756387035911 14.15054518247008 0.282423779651069 0.7793133977903532 0.08529043197099023 1 
11 11.110064956149818 5.252522481483709 0.29372186407252804 0.3913189470227744 0.9880455191104223 1 
12 6.988526969545473 9.376452575576671 0.3480332525305414 0.8266194019134382 0.12142402837249705 1 
13 3.9513251709833934 20.300337762940256 0.30985143222981565 0.012429580660744899 0.6107929879791267 1 
14 18.21744442547042 23.858097006484996 0.33481185437109845 0.14095019286668936 0.1520298346157642 1 
15 0.18991308602405096 21.546833541913955 0.32576377728418027 0.9989631386590491 0.4678163665893585 1 
16 15.580956918215984 7.364177148279372 0.3464603397661391 0.0361088633921941 0.31343898216208743 1 
17 6.529384244205747 8.665301224402972 0.2532860474558254 0.8143334959131022 0.1111626903870363 1 
18 14.521509061541666 15.628094682589298 0.3366396575749272 0.30063064778086 0.041467709538662356 1 
19 5.837847518574321 10.409025918564454 0.26792923324347895 0.8293861254088872 0.12382878846445361 1 
20 11.989842594696666 21.035682463710764 0.34535602110744124 0.8222477413659871 0.8823040585509391 1 
21 10.719843777679023 22.8572885441926 0.3319393214228438 0.4770795885834024 5.25621537506793E-4 1 
22 8.60797593651042 19.453282271397743 0.29802391848271337 0.17796081168818922 0.11752024734442468 1 
23 17.252215392234003 22.82821719914892 0.31341560655254974 0.3113770794714713 0.03694342262387812 1 
24 17.355231399248325 19.05280883015251 0.2579381207446667 0.25768503557452443 0.06264035621072617 1 
25 11.600040682741955 20.501163814182473 0.34980421300783354 0.2299010837471936 0.07923097138803159 1 
26 3.460327872282236 16.644243816649084 0.32301432123080726 0.7468797455860061 0.06520074606850013 1 
27 4.684888828290445 12.106586871049496 0.34667467965367904 0.33088483705068483 0.0294683202369615 1 
28 9.196536637391528 19.64369237722181 0.2863083272516158 0.9571841153382912 0.29755819433144726 1 
29 15.588531599277351 13.05746260531269 0.25569388614506605 0.2027218726983353 0.0979729921659302 1 
30 5.663709842350664 9.539592081691591 0.3417808757083016 0.8302860950490522 0.12461873326276857 1 
31 19.413952626138673 22.95043746137096 0.2915658024572722 0.5169730505108074 2.8816748414134397E-4 1 
32 15.168878033277231 14.153799760792174 0.26838686315677424 0.2503794535374227 0.06676844207315152 1 
33 1.6228253465806388 6.446099993668088 0.2929116513552486 0.9928789654697638 0.41591477301300017 1 
34 17.077954178721292 20.32153924786953 0.29974417415674576 0.2873078400627391 0.04749359661854219 1 
35 15.485805675909365 20.541917646107514 0.3121893586028512 0.33089584601832867 0.029464363617224876 1 
36 16.59546630549945 7.224369573171079 0.3178511082760396 0.016615426741805217 0.37217451609325736 1 
37 19.269848814827366 6.8362260229285505 0.3044225420800902 0.009366540396982814 0.40367342880609475 1 
38 5.281250159503462 7.621240240777754 0.2586075667053066 0.939213603267765 0.2610619103103352 1 
39 13.824168017871836 24.427828367236135 0.3324192177293865 0.40101524630901697 0.00989591050804789 1 
40 12.128029229214926 9.143477264690423 0.2968517244937889 0.2631841055405509 0.059638521063239414 1 
41 6.971417646979264 13.496784017857792 0.2900628191074874 0.672745690757271 0.030789038571355065 1 
42 0.7233931304891857 11.45413126682362 0.2784105688457964 0.911857235035112 0.21649758740138986 1 
43 17.96103609983619 15.600074646502637 0.2769692260471829 0.19928445686466045 0.10053765870007503 1 
44 3.458573183151936 17.77167439649936 0.2770024853891285 0.7309121394882185 0.05651428000782993 1 
45 16.92603595165207 15.618272427518463 0.31320252879918936 0.22130259521616957 0.0848762153685268 1 
46 4.541095024268388 17.369824618185472 0.2920078994568064 0.7055616026564078 0.04421010595524488 1 
47 5.581480337513813 20.298673066439093 0.32677028544952397 0.5954136902853844 0.00918819522537484 1 
48 19.619885327769826 12.51426888843896 0.3379876998494468 0.1044313722864173 0.19418067299663183 1 
49 12.94301282160901 15.50903505507981 0.2582802079752901 0.3609997646924979 0.019709531028920924 1 
50 5.184662152549152 13.13490380882691 0.2537887120549284 0.770969324569742 0.07979097446363936 1 
51 18.060274020319675 19.595962613304916 0.32450083377021893 0.264581754955341 0.058889753122767674 1 
52 11.80380630382183 13.757817672418984 0.32510375710777967 0.394060419656063 0.011352064041450671 1 
53 1.4559787041244934 21.71995698235923 0.34775767386822415 0.9857854399845882 0.381625567376312 1 
54 0.28605071250880465 17.283397925387206 0.34298578723081496 0.9974803021680071 0.44986668817215114 1 
55 11.202768485259803 12.556847496107284 0.2623051169260494 0.41505648348513857 0.007268228138179178 1 
56 18.737546401320348 23.2388345561915 0.33714896363807134 0.20828431927825047 0.09391877460162446 1 
57 19.284191638098854 8.173942082130779 0.3372968372045878 0.026403678831189936 0.3396674562811115 1 
58 8.264447000291112 23.99731804930553 0.32858453680584654 0.5488522556286515 0.0023922658157402577 1 
59 16.390729876774756 23.567751502819608 0.33304988192980134 0.33298165279612413 0.0287199646735653 1 
60 11.84884548923212 5.695512265119983 0.34429853027629687 0.02448864632240888 0.34543948588431506 1 
61 9.143860787085723 5.395244348471563 0.32133926065727925 0.9620488755557561 0.30892190968700406 1 
62 12.64609370652233 22.725723028502497 0.2576268789708375 0.4234632205400538 0.005892601360898919 1 
63 0.618708440385353 9.588796813417785 0.32891166036012204 0.9500560276301395 0.2821707733251135 1 
64 2.1691264619411115 12.81616813930046 0.3419491890469039 0.8561105338688995 0.14902238295354592 1 
65 14.175108686346608 10.946206130361075 0.29777320513832417 0.20814892359985904 0.09401607272691315 1 
66 6.206435138271287 17.957931100279687 0.3116151982374643 0.6043357236287323 0.011007099463735792 1 
67 4.496915497382012 20.140701587394908 0.32665313477834756 0.9710368498002229 0.3322970300493091 1 
68 17.897360099537945 17.957493788582198 0.33099061204392527 0.23767682401089818 0.07433986404762927 1 
69 10.083559031200933 6.948768098691913 0.2600017245802007 0.5041177921111829 1.6956499393816493E-5 1 
70 15.31009967399765 18.209928003068026 0.28675670891629534 0.3105141593154319 0.03729586539553975 1 
71 3.2462827676782178 7.281234429381267 0.3076385255361767 0.9766606996731433 0.34902126842793546 1 
72 1.3439106917769974 24.64592110638811 0.2775584218229172 0.7158351988369849 0.04898429412824307 1 
73 13.050161215511137 10.046145789088367 0.30747933913800474 0.2352774385159252 0.07582790586684013 1 
74 18.740859212689152 14.766158850420547 0.29294878527718343 0.164435873203851 0.12932936883597312 1 
75 10.103917448854336 14.815115299349053 0.3224543280780323 0.48963340717587944 1.0747779825820425E-4 1 
76 1.3509514452664242 14.514318962281756 0.34604627907566715 0.8384337001451736 0.13194751650607395 1 
77 7.593338566768722 21.20597816360412 0.29166369871783976 0.7207310701909325 0.05136006123800613 1 
78 14.201857982803377 7.038924821476117 0.33369087623268967 0.048168703789917666 0.2858774188341715 1 
79 0.8807886614823502 21.833760891683898 0.32494313826338056 0.007078161055749765 0.5838335296395103 1 
80 1.017642894622593 23.78874854549158 0.3180021554024267 0.7055929957503997 0.04422426556652215 1 
81 18.192856216371545 8.90595866297265 0.34333253280532844 0.047528357446336766 0.28723390146738603 1 
82 15.724922162283478 12.152960155929433 0.32451887921367994 0.19330726321594432 0.1051081601198805 1 
83 4.334155450013274 9.335633282486457 0.26852470902589354 0.8995696404402502 0.19942704306866005 1 
84 3.0359865859332498 6.2926398879762235 0.306506567465669 0.9904615422555012 0.4028018746664566 1 
85 5.885448472972484 21.016863813980812 0.2593451253565498 0.689568349337524 0.03732966279493727 1 
86 19.560482428556526 15.41955619080201 0.3310929045469207 0.16063998403223356 0.13280144395387755 1 
87 8.802447344652977 8.547011334153872 0.27886980670976597 0.6717293736047778 0.030416117992418057 1 
88 8.925487119065249 16.906096922426194 0.25072822943237316 0.4348368603148074 0.004264420052011941 1 
89 15.3311866295448 6.132062632819815 0.2621814522039824 0.01058439914681869 0.3976654034965714 1 
90 18.77588768944885 5.2251875183382115 0.2597296114880527 0.3867490269042109 0.9870053563287131 1 
91 17.024180569689467 11.021609093452806 0.29130879921246455 0.11814440437777246 0.17722096708120294 1 
92 5.388858439445692 12.304724796356394 0.32857518547174885 0.963634602454666 0.3128023627106801 1 
93 2.8675090633860574 18.721258747027427 0.2839709938838199 0.7520825250945753 0.06819634028653393 1 
94 9.61624350397919 16.64386826449667 0.31295538248187577 0.6166375913147997 0.01379461922734565 1 
95 11.815296501347198 14.895041407193434 0.2687983551589568 0.40473387204680983 0.009159532164669193 1 
96 3.654674330193739 22.393021767436405 0.2567071845354886 0.6741965689736907 0.031325747071813015 1 
97 9.715428620106104 20.421237471307542 0.2682271888460846 0.5177075143581463 3.1365444385411667E-4 1 
98 2.470664830757444 22.21531878947628 0.3305668003770271 0.7055955808241143 0.04422543165991033 1 
99 17.38460899659878 6.936123196683143 0.2968360385652906 0.027244248288661232 0.33720565358758 1 
100 2.078677229815892 18.406091991789065 0.2566477007359935 0.7377695644773745 0.06015271490182006 1 
100
Time=201 Lattice="20.0 0.00000000 0.00000000 0.00000000 25.0 0.00000000 0.00000000 0.00000000 0.000000000000000001" Properties=id:I:1:pos:R:2:radius:R:1:color:R:3
1 6.305952331185082 18.592914030183405 0.32658120247126987 0.6717724698954466 0.030431880781906284 1 
2 12.632300390541598 20.112765275893832 0.2671586896260961 0.41702395267228676 0.0069330921975506166 1 
3 2.2825054888565184 20.73825770449274 0.2952825265942425 0.800475126085944 0.10035678586564734 1 
4 17.16241594822177 12.421924009130544 0.2556177878259197 0.15031701044808526 0.14261812186676914 1 
5 7.098659435364515 21.60346814683207 0.33162942082511 0.43152811147869263 0.004710589167983892 1 
6 1.4974414427488094 20.3544325980323 0.3191231395776287 0.6177330013504179 0.014058706845134938 1 
7 0.6603962738741586 19.461987132889725 0.29206038243213367 0.7730629040133323 0.0811484147674672 1 
8 8.335609117566088 22.85403832429359 0.2696341513419688 0.5484479324454379 0.0023527375321328314 1 
9 4.235506238514676 12.987249525997358 0.34951208635794756 0.7882426708031383 0.09144625478613744 1 
10 4.239888718201059 13.976563870741431 0.282423779651069 0.7791579490307181 0.08518577713274711 1 
11 10.90820531879039 5.435707465006224 0.29372186407252804 0.007261353481794575 0.5849036290591103 1 
12 7.123618304377417 9.218967472090585 0.3480332525305414 0.8244723168902822 0.11958218289379208 1 
13 3.595159725503644 20.22994996629444 0.30985143222981565 0.16522576841626313 0.12861581365448727 1 
14 18.08549171647785 23.71766758708578 0.33481185437109845 0.17406956569446735 0.12083070800313106 1 
15 0.4113913818111427 21.45379704737377 0.32576377728418027 0.9533061875184012 0.28901777241309634 1 
16 15.378168718954946 7.28274212296898 0.3464603397661391 0.035917330134852266 0.3139159449849711 1 
17 6.667998163190982 8.494794358814708 0.2532860474558254 0.8164588983152715 0.11289049911286775 1 
18 14.436135885658615 15.431743619605392 0.3366396575749272 0.30063088805701 0.041467605066922764 1 
19 5.9729563433019806 10.254237840472676 0.26792923324347895 0.8282054365144276 0.12279820859071461 1 
20 12.140212495953618 21.07346540677089 0.34535602110744124 0.7794948884984965 0.08541272655421145 1 
21 10.710028785181917 22.6434033665345 0.3319393214228438 0.47707957915055255 5.25621970371537E-4 1 
22 8.483921825208714 19.19294502421663 0.29802391848271337 0.3648388978957341 0.018615043361386086 1 
23 17.17132634254928 22.629593279088517 0.31341560655254974 0.3114555785361131 0.036911454325581294 1 
24 17.247562758625012 18.85815692318734 0.2579381207446667 0.2582873127545614 0.06230721182022114 1 
25 11.395776934780189 20.04094662356959 0.34980421300783354 0.3413101252701042 0.025850736942247265 1 
26 3.5663108955414002 16.45758023992515 0.32301432123080726 0.7468618491934689 0.06519058495384317 1 
27 4.690626106989953 11.900732846931778 0.34667467965367904 0.6234609752020689 0.015482314458848567 1 
28 9.352703344134309 19.472361881211746 0.2863083272516158 0.730355550114649 0.05622492123669515 1 
29 15.464119579962215 12.889100506280334 0.25569388614506605 0.2029830224347257 0.09778001661032631 1 
30 5.810543152448111 9.37321612678204 0.3417808757083016 0.8314160596888027 0.12561597873260139 1 
31 19.39704175800718 22.726332579234136 0.2915658024572722 0.4216417408990827 0.006178186760980031 1 
32 15.062024628351036 13.968359220040647 0.26838686315677424 0.25035822017425813 0.06678067706364271 1 
33 1.8338710132857592 6.41009558325467 0.2929116513552486 0.992878975495499 0.41591483178046607 1 
34 16.98690559076895 20.127847194009618 0.29974417415674576 0.2872789477034667 0.04750717805709276 1 
35 15.413391604775263 20.340424296615122 0.3121893586028512 0.33089549006953406 0.029464491540567184 1 
36 16.374449661468372 7.164456541248557 0.3178511082760396 0.018182537543665056 0.3663888744447593 1 
37 19.0597350118235 6.79497031516317 0.3044225420800902 0.009370066873208238 0.403655468655456 1 
38 5.469330253654211 7.518922048122143 0.2586075667053066 0.9392133801961755 0.2610615002628295 1 
39 13.781780715440792 24.217955740506653 0.3324192177293865 0.40101524632618524 0.00989591050458044 1 
40 12.026581580557183 8.954834017489837 0.2968517244937889 0.2631848134826864 0.05963814034958709 1 
41 7.0453909140826205 13.295858260802857 0.2900628191074874 0.6727457826389243 0.030789072398707262 1 
42 0.8997588204952206 11.332729739083206 0.2784105688457964 0.911857241012723 0.2164975960853457 1 
43 17.832926667476894 15.42988593709687 0.2769692260471829 0.19931046513837686 0.10051808097900011 1 
44 3.557290921648069 17.582072343570054 0.2770024853891285 0.7308992393078522 0.05650756343872648 1 
45 16.8061464756644 15.439735638711412 0.31320252879918936 0.22121336516861145 0.08493613474624173 1 
46 4.629207629864516 17.174469494707104 0.2920078994568064 0.7055909845836983 0.04422335836738461 1 
47 5.65157937420372 20.068226621468245 0.32677028544952397 0.720208326023611 0.051103248898057785 1 
48 19.45049472249469 12.3833107757662 0.3379876998494468 0.10443137234130945 0.1941806729256304 1 
49 12.883497494928255 15.3033882627595 0.2582802079752901 0.36100263107434566 0.019708701482375857 1 
50 5.293051378388284 12.96532535722502 0.2537887120549284 0.7678926471697229 0.07782286941095651 1 
51 17.96327164363262 19.414536927346095 0.32450083377021893 0.2639224216243874 0.05924226950817246 1 
52 11.758343356129847 13.548123161693518 0.32510375710777967 0.3940564384919275 0.01135292718058234 1 
53 2.1069551808789284 21.432329093541078 0.34775767386822415 0.9149582680175903 0.2210562138999298 1 
54 0.7511536555782569 17.14856519797025 0.34298578723081496 0.942626260291622 0.2674446437936694 1 
55 11.166388174343245 12.345816106452236 0.2623051169260494 0.4150566105042602 0.007268206240986452 1 
56 18.606415788942858 23.025636414733842 0.33714896363807134 0.2566796540167622 0.06319889053415001 1 
57 19.08151152364453 8.105325100289166 0.3372968372045878 0.026405264804325868 0.33966277165006475 1 
58 8.284638965349783 23.791516687533374 0.32858453680584654 0.5487930854320607 0.002386460379121491 1 
59 16.31931507226973 23.366291302175476 0.33304988192980134 0.3329013673011221 0.028748424989193833 1 
60 11.688624142922427 5.642554034140172 0.34429853027629687 0.027367117861568535 0.33684927606192006 1 
61 9.340959967996822 5.313638675295352 0.32133926065727925 0.9596723249931157 0.30327340384324386 1 
62 12.613319276264614 22.51413670435351 0.2576268789708375 0.4234637424602079 0.00589252051623157 1 
63 0.8114316907911777 9.495517852571847 0.32891166036012204 0.9500560190576504 0.2821707556135314 1 
64 2.321620374767302 12.665872245690721 0.3419491890469039 0.8561105285457716 0.14902237755256936 1 
65 14.050139431482584 10.772365737960639 0.29777320513832417 0.2081488974670554 0.09401609151309376 1 
66 6.265480227726532 17.699487166904895 0.3116151982374643 0.6170101205887703 0.013884137597011292 1 
67 4.984354538128673 19.80502810262726 0.32665313477834756 0.8099631729555521 0.10766999679947181 1 
68 17.78498375077102 17.775138101558586 0.33099061204392527 0.23769324811136094 0.07432974274254028 1 
69 10.08532235092308 6.734665321662034 0.2600017245802007 0.5041176828983207 1.6955599943468957E-5 1 
70 15.228957947650024 18.011788595244543 0.28675670891629534 0.310514159254191 0.03729586542061902 1 
71 3.4501183919005203 7.216842276115131 0.3076385255361767 0.9769024577184335 0.3497866656314505 1 
72 1.4338317585713962 24.457649999613114 0.2775584218229172 0.7151459781136413 0.04865511180304194 1 
73 12.936838573651212 9.864566097307264 0.30747933913800474 0.23527693550441175 0.07582821979289495 1 
74 18.595699521382738 14.605782400234682 0.29294878527718343 0.16450809467545235 0.12926400031598662 1 
75 10.099479718091953 14.601050961508742 0.3224543280780323 0.4898206116416182 1.0363068666996433E-4 1 
76 1.495875609516225 14.3567114352396 0.34604627907566715 0.8384337003156259 0.13194751666280918 1 
77 7.7165229246686105 20.890589195278046 0.29166369871783976 0.654059138359124 0.0243259709758748 1 
78 14.008329464391439 6.947212797564228 0.33369087623268967 0.04816670161488584 0.28588164377982817 1 
79 1.383118657675368 21.899547179655777 0.32494313826338056 0.9996505744764601 0.4813103390789628 1 
80 1.108061818581208 23.588682329622287 0.3180021554024267 0.7062455450600216 0.04451918246440434 1 
81 17.99901657575327 8.814815847628028 0.34333253280532844 0.04751602643999425 0.2872601267478332 1 
82 15.590705123553434 11.98025009077353 0.32451887921367994 0.19307035545151163 0.10529226851081497 1 
83 4.505230537211362 9.206940883437392 0.26852470902589354 0.8995635403971449 0.19941893408715988 1 
84 3.2459280382005984 6.250867155254551 0.306506567465669 0.9903043905931628 0.4020122223689745 1 
85 5.953217496766974 20.841515073353442 0.2593451253565498 0.6730831933327963 0.030913432098379268 1 
86 19.416636158585778 15.263917275400686 0.3310929045469207 0.16062229354066254 0.1328177940607691 1 
87 8.875985391493161 8.345925868485983 0.27886980670976597 0.6717293777866052 0.030416119521735063 1 
88 8.907240277247597 16.708034709309405 0.25072822943237316 0.46949861523821895 9.31201608822485E-4 1 
89 15.121560893031697 6.088219734947381 0.2621814522039824 0.01059553310323097 0.39761216975885605 1 
90 18.598886202482653 5.429696212137478 0.2597296114880527 0.04827773799558599 0.7143525087551241 1 
91 16.860661593028254 10.883387918873234 0.29130879921246455 0.11814461014104993 0.1772207236583035 1 
92 5.632866256634941 12.145874105465 0.32857518547174885 0.8811417170237026 0.17637832034268192 1 
93 2.9756824956435435 18.535621388321033 0.2839709938838199 0.751386032209856 0.06779048736777532 1 
94 9.664375289495082 16.414935540318524 0.31295538248187577 0.5913096443826161 0.00840814811195234 1 
95 11.774591073937403 14.685314553133916 0.2687983551589568 0.4047337661626446 0.009159552715501729 1 
96 3.729294300301405 22.192285143633416 0.2567071845354886 0.6742501237326822 0.031345655755603885 1 
97 9.723818127379172 20.212204936227277 0.2682271888460846 0.5223618032044274 5.0030054318706E-4 1 
98 2.5730151815556273 22.033372865884967 0.3305668003770271 0.8024184886518464 0.10182534269301735 1 
99 17.20035042986056 6.874207865953078 0.2968360385652906 0.024985393134182077 0.34391949748891615 1 
100 2.1800422795466807 18.218942716268813 0.2566477007359935 0.7384890990705971 0.060542437060761345 1 
100
Time=401 Lattice="20.0 0.00000000 0.00000000 0.00000000 25.0 0.00000000 0.00000000 0.00000000 0.000000000000000001" Properties=id:I:1:pos:R:2:radius:R:1:color:R:3
1 6.454665139308785 18.148963338957408 0.32658120247126987 0.6511888527912834 0.02340590562654299 1 
2 12.540204658023576 19.577820598463298 0.2671586896260961 0.41399072748903043 0.007453144318092519 1 
3 2.6701582236689307 20.0559389811547 0.2952825265942425 0.7234938666352986 0.052729956763921615 1 
4 16.785179070536373 12.036381644648053 0.2556177878259197 0.15031696431809777 0.14261816700300856 1 
5 7.104120942236626 21.175806525135876 0.33162942082511 0.5388306427653162 0.0015100992172134564 1 
6 1.6728423246833486 19.83673778286322 0.3191231395776287 0.6865048893531409 0.03608629439585137 1 
7 0.9548288637027016 19.009861912846013 0.29206038243213367 0.772572056735477 0.08082882507620842 1 
8 8.389529765079379 22.300929410621126 0.2696341513419688 0.5485743532710633 0.002365061310705463 1 
9 4.549797780984304 12.541942583498365 0.34951208635794756 0.7883380715787881 0.09151357858770182 1 
10 4.534809148307687 13.5378466517034 0.282423779651069 0.7787351778137077 0.08490157715409136 1 
11 10.339132430808705 5.3889083121979375 0.29372186407252804 0.015490685028419882 0.37650617948346493 1 
12 7.460559308609885 8.818588539374833 0.3480332525305414 0.8196021732207348 0.11548153376907438 1 
13 3.491023597216163 19.82477719722956 0.30985143222981565 0.5099928616955208 9.986725833510679E-5 1 
14 17.793572282877918 23.319315937436283 0.33481185437109845 0.2275278442128642 0.08076387999039158 1 
15 0.7823190420124355 21.147182504084117 0.32576377728418027 0.8414068972067331 0.13470377699780256 1 
16 14.864737607943079 7.077676076899352 0.3464603397661391 0.03542724820072596 0.31514287061178803 1 
17 7.02061152497139 8.069147691810679 0.2532860474558254 0.8213095119260558 0.11690706408778595 1 
18 14.221058447042706 14.93708192922984 0.3366396575749272 0.300632013780876 0.04146711560572758 1 
19 6.31203353983361 9.861485523319686 0.26792923324347895 0.8253509009923009 0.12033331562606392 1 
20 12.200451083754144 20.730231059562286 0.34535602110744124 0.5169789023148155 2.8836627892686595E-4 1 
21 10.685302081976317 22.104567433174946 0.3319393214228438 0.47707954523964846 5.256235265129194E-4 1 
22 8.402055090249778 18.61103370985529 0.29802391848271337 0.47077400407151365 8.54889674367254E-4 1 
23 16.967689354175356 22.129056766780103 0.31341560655254974 0.3117120042101718 0.036807134509338924 1 
24 16.97872976666115 18.369527087702004 0.2579381207446667 0.25961580147287244 0.06157619008718229 1 
25 11.203781718106857 19.317293469380523 0.34980421300783354 0.39334626663580585 0.01150744001624815 1 
26 3.8332896742992846 15.987259371044852 0.32301432123080726 0.7467938798792704 0.0651520025869542 1 
27 4.8937018117563715 11.436644284535374 0.34667467965367904 0.7402578407652025 0.06150693283605657 1 
28 9.509526365889865 18.95076655444695 0.2863083272516158 0.5953980230154636 0.00918514977158541 1 
29 15.151069391274708 12.464348929518813 0.25569388614506605 0.2037397095636853 0.09722234382901712 1 
30 6.181785377079362 8.957017172966566 0.3417808757083016 0.8341800676251004 0.12808108087637798 1 
31 19.260352058805317 22.20296994102352 0.2915658024572722 0.34262702419906926 0.025412024501716146 1 
32 14.792807035290492 13.501265140770235 0.26838686315677424 0.2502728980886142 0.06682985494041688 1 
33 2.3655532426780077 6.319390675685702 0.2929116513552486 0.9928790063160852 0.41591501244057616 1 
34 16.757467546501342 19.6399301300387 0.29974417415674576 0.28717501050079586 0.04755605447230965 1 
35 15.230959556265416 19.83280690761954 0.3121893586028512 0.3308940821549581 0.029464997529635495 1 
36 15.833492004379412 7.0077273884028894 0.3178511082760396 0.021123969139966614 0.35620240938131004 1 
37 18.530406666554924 6.69099860913971 0.3044225420800902 0.009379191188115477 0.4036090151478247 1 
38 5.943154114967504 7.26115265028709 0.2586075667053066 0.9392108013250886 0.2610567598793102 1 
39 13.674995373217014 23.689228527351972 0.3324192177293865 0.40101524644810405 0.009895910479956915 1 
40 11.771005196671442 8.479582313458982 0.2968517244937889 0.26318736499151696 0.05963676822384567 1 
41 7.231750430320064 12.789670974810473 0.2900628191074874 0.6727467572133201 0.030789431201425077 1 
42 1.3440727727133657 11.026885746031203 0.2784105688457964 0.911857264995021 0.21649763092555807 1 
43 17.510391295543677 15.001322746315628 0.2769692260471829 0.19935362699714088 0.10048559675497842 1 
44 3.8059258803423752 17.104461749762443 0.2770024853891285 0.7308571545689576 0.05648565504109743 1 
45 16.503789542240703 14.989900672448838 0.31320252879918936 0.22092799410563102 0.0851279528263042 1 
46 4.8512725389599725 16.682314130265976 0.2920078994568064 0.7056974584273888 0.04427140138398972 1 
47 6.015413623184105 19.58532889379846 0.32677028544952397 0.7902751412206793 0.09288780122757967 1 
48 19.023752921602256 12.053391056829911 0.3379876998494468 0.10443137253268492 0.1941806726780917 1 
49 12.733571271660255 14.785314627829866 0.2582802079752901 0.361012494758461 0.019705847020044243 1 
50 5.566866726919039 12.529476261906384 0.2537887120549284 0.7647882413875735 0.07586890325882012 1 
51 17.716530391605055 18.955724220836704 0.32450083377021893 0.26252076649852435 0.05999589359239882 1 
52 11.643801501916771 13.01984849882142 0.32510375710777967 0.39404437475201237 0.011355542875693736 1 
53 2.636366580569469 20.89176202230357 0.34775767386822415 0.8004193371384325 0.10031484656882134 1 
54 1.3227658340573931 16.746952672029458 0.34298578723081496 0.88238768975417 0.17785150206082195 1 
55 11.074735996626517 11.81416722426129 0.2623051169260494 0.41505706424224703 0.00726812802006177 1 
56 18.3296637135985 22.491990720557016 0.33714896363807134 0.2760399116410792 0.05296322430669714 1 
57 18.570987741177582 7.932480257120051 0.3372968372045878 0.02640732356944081 0.33965669071850957 1 
58 8.335610699190164 23.270932103020026 0.32858453680584654 0.548658705542681 0.0023733021883666217 1 
59 16.139250777525216 22.858906579009062 0.33304988192980134 0.3326352564531102 0.02884286844250805 1 
60 11.28752899455101 5.4969238495104795 0.34429853027629687 0.030864223195651075 0.3270502300603435 1 
61 9.497546798562938 5.3551930344334275 0.32133926065727925 0.9991057199078677 0.47010885824781573 1 
62 12.530756634123446 21.98110985827461 0.2576268789708375 0.4234686109482875 0.005891766421753042 1 
63 1.2969548801739965 9.260522282528381 0.32891166036012204 0.9500559798762969 0.2821706746611324 1 
64 2.705794703597585 12.287235307877955 0.3419491890469039 0.8561105069855325 0.14902235567702177 1 
65 13.735308004500192 10.334414816884975 0.29777320513832417 0.20814878314577162 0.09401617369566784 1 
66 6.417665541904259 17.10749574457558 0.3116151982374643 0.6297661265390976 0.017132779738530057 1 
67 5.241944682486024 19.105181236203457 0.32665313477834756 0.6235901412068208 0.015515245857541826 1 
68 17.501899218343144 17.315684101872066 0.33099061204392527 0.23775131482600198 0.07429396630478768 1 
69 10.089664182661688 6.195632213301771 0.2600017245802007 0.5035611080906314 1.2681651657464599E-5 1 
70 15.024539488728525 17.512620606330717 0.28675670891629534 0.31051415897291795 0.037295865535805495 1 
71 3.964025424050416 7.056621145987037 0.3076385255361767 0.977855487145755 0.35284656509380014 1 
72 1.6596086647626132 23.981711777856287 0.2775584218229172 0.7135014413707751 0.04787486850142747 1 
73 12.651349392962866 9.40712227174881 0.30747933913800474 0.23527518870113545 0.07582930996734283 1 
74 18.230287468741274 14.20171844958452 0.29294878527718343 0.16476827526079052 0.12902871980653963 1 
75 10.092875722646957 14.0617167920186 0.3224543280780323 0.49602912308576136 1.5768112101410825E-5 1 
76 1.8609796692118616 13.9596544767953 0.34604627907566715 0.8384337007493983 0.13194751706167407 1 
77 7.887083069447758 20.25404151565936 0.29166369871783976 0.6131647265571238 0.012974595464208483 1 
78 13.520756476182882 6.716170880754901 0.33369087623268967 0.04815547661848485 0.2859053324107968 1 
79 2.049261134048927 21.70379387230044 0.32494313826338056 0.9350093633848822 0.2534906619061267 1 
80 1.336615098970661 23.08629890900384 0.3180021554024267 0.7078135755143421 0.04523245736756365 1 
81 17.51060185215821 8.585244280047329 0.34333253280532844 0.047468005551150605 0.2873622940300885 1 
82 15.252206445825461 11.545693807370059 0.32451887921367994 0.19240488392685956 0.10581064883998798 1 
83 4.936173320079018 8.882728569694441 0.26852470902589354 0.8995384331782652 0.19938556186793543 1 
84 3.7744129165943687 6.143638909745046 0.306506567465669 0.989664638115922 0.39886374448891665 1 
85 6.114282307167156 20.384027629871333 0.2593451253565498 0.6624253545224588 0.027117346259927178 1 
86 19.054083514154446 14.871713244976545 0.3310929045469207 0.16057373409890263 0.13286268234291743 1 
87 9.06124809390984 7.839335935709251 0.27886980670976597 0.671729396479326 0.030416126357765028 1 
88 8.89832446731586 16.195681991999685 0.25072822943237316 0.5063170053551843 3.990614915816426E-5 1 
89 14.593425837223618 5.977597904091292 0.2621814522039824 0.010652905244488253 0.3973383184711052 1 
90 18.08793920619347 5.559686597737906 0.2597296114880527 0.005083095053888598 0.571114395157111 1 